 Entering Gaussian System, Link 0=g09
 Input=gaussian.gjf
 Output=gaussian.log
 Initial command:
 /opt//g09/l1.exe /tmp/Gau-8325.inp -scrdir=/tmp/
 Entering Link 1 = /opt//g09/l1.exe PID=      8327.
  
 Copyright (c) 1988,1990,1992,1993,1995,1998,2003,2009, Gaussian, Inc.
                  All Rights Reserved.
  
 This is part of the Gaussian(R) 09 program.  It is based on
 the Gaussian(R) 03 system (copyright 2003, Gaussian, Inc.),
 the Gaussian(R) 98 system (copyright 1998, Gaussian, Inc.),
 the Gaussian(R) 94 system (copyright 1995, Gaussian, Inc.),
 the Gaussian 92(TM) system (copyright 1992, Gaussian, Inc.),
 the Gaussian 90(TM) system (copyright 1990, Gaussian, Inc.),
 the Gaussian 88(TM) system (copyright 1988, Gaussian, Inc.),
 the Gaussian 86(TM) system (copyright 1986, Carnegie Mellon
 University), and the Gaussian 82(TM) system (copyright 1983,
 Carnegie Mellon University). Gaussian is a federally registered
 trademark of Gaussian, Inc.
  
 This software contains proprietary and confidential information,
 including trade secrets, belonging to Gaussian, Inc.
  
 This software is provided under written license and may be
 used, copied, transmitted, or stored only in accord with that
 written license.
  
 The following legend is applicable only to US Government
 contracts under FAR:
  
                    RESTRICTED RIGHTS LEGEND
  
 Use, reproduction and disclosure by the US Government is
 subject to restrictions as set forth in subparagraphs (a)
 and (c) of the Commercial Computer Software - Restricted
 Rights clause in FAR 52.227-19.
  
 Gaussian, Inc.
 340 Quinnipiac St., Bldg. 40, Wallingford CT 06492
  
  
 ---------------------------------------------------------------
 Warning -- This program may not be used in any manner that
 competes with the business of Gaussian, Inc. or will provide
 assistance to any competitor of Gaussian, Inc.  The licensee
 of this program is prohibited from giving any competitor of
 Gaussian, Inc. access to this program.  By using this program,
 the user acknowledges that Gaussian, Inc. is engaged in the
 business of creating and licensing software in the field of
 computational chemistry and represents and warrants to the
 licensee that it is not a competitor of Gaussian, Inc. and that
 it will not use this program in any manner prohibited above.
 ---------------------------------------------------------------
  

 Cite this work as:
 Gaussian 09, Revision A.01,
 M. J. Frisch, G. W. Trucks, H. B. Schlegel, G. E. Scuseria, 
 M. A. Robb, J. R. Cheeseman, G. Scalmani, V. Barone, B. Mennucci, 
 G. A. Petersson, H. Nakatsuji, M. Caricato, X. Li, H. P. Hratchian, 
 A. F. Izmaylov, J. Bloino, G. Zheng, J. L. Sonnenberg, M. Hada, 
 M. Ehara, K. Toyota, R. Fukuda, J. Hasegawa, M. Ishida, T. Nakajima, 
 Y. Honda, O. Kitao, H. Nakai, T. Vreven, J. A. Montgomery, Jr., 
 J. E. Peralta, F. Ogliaro, M. Bearpark, J. J. Heyd, E. Brothers, 
 K. N. Kudin, V. N. Staroverov, R. Kobayashi, J. Normand, 
 K. Raghavachari, A. Rendell, J. C. Burant, S. S. Iyengar, J. Tomasi, 
 M. Cossi, N. Rega, J. M. Millam, M. Klene, J. E. Knox, J. B. Cross, 
 V. Bakken, C. Adamo, J. Jaramillo, R. Gomperts, R. E. Stratmann, 
 O. Yazyev, A. J. Austin, R. Cammi, C. Pomelli, J. W. Ochterski, 
 R. L. Martin, K. Morokuma, V. G. Zakrzewski, G. A. Voth, 
 P. Salvador, J. J. Dannenberg, S. Dapprich, A. D. Daniels, 
 O. Farkas, J. B. Foresman, J. V. Ortiz, J. Cioslowski, 
 and D. J. Fox, Gaussian, Inc., Wallingford CT, 2009.
 
 ******************************************
 Gaussian 09:  EM64L-G09RevA.01  8-May-2009
                 6-Jan-2014 
 ******************************************
 %chk=gaussian.chk
 %mem=1GB
 %nproc=2
 Will use up to    2 processors via shared memory.
 --------------------------------------------------------
 #HF/6-31g* nosymm iop(2/12=3,3/33=1) guess=only pop=full
 --------------------------------------------------------
 1/38=1/1;
 2/12=3,15=1,17=6,18=5,40=1/2;
 3/5=1,6=6,7=1,11=9,16=1,25=1,30=1,33=1,89=1/1,2;
 4//1;
 6/7=3,28=1/1;
 99/5=2/99;
 -------
 [0] [0]
 -------
 Symbolic Z-matrix:
 Charge =  2 Multiplicity = 1
 c                    -3.17128   0.40996   0.23193 
 n                    -0.63414   0.08013   0.04514 
 h                    -3.56582   1.06538   1.23528 
 h                    -3.85853  -0.10937  -0.68992 
 h                    -0.1125   -0.52051  -0.81396 
 h                     0.14127   0.50518   0.81263 
 c                    -3.16158   0.40874   0.23119 
 n                    -0.64182   0.08103   0.04577 
 h                    -3.55217   1.05737   1.22428 
 h                    -3.84191  -0.10544  -0.68103 
 h                    -0.12744  -0.52111  -0.81825 
 h                     0.12785   0.51061   0.8183 
 
                          Input orientation:                          
 ---------------------------------------------------------------------
 Center     Atomic      Atomic             Coordinates (Angstroms)
 Number     Number       Type             X           Y           Z
 ---------------------------------------------------------------------
      1          6           0       -3.171284    0.409959    0.231934
      2          7           0       -0.634141    0.080135    0.045143
      3          1           0       -3.565819    1.065378    1.235284
      4          1           0       -3.858526   -0.109366   -0.689919
      5          1           0       -0.112502   -0.520507   -0.813956
      6          1           0        0.141274    0.505178    0.812635
      7          6           0       -3.161578    0.408737    0.231194
      8          7           0       -0.641817    0.081028    0.045774
      9          1           0       -3.552170    1.057367    1.224278
     10          1           0       -3.841905   -0.105443   -0.681035
     11          1           0       -0.127437   -0.521110   -0.818250
     12          1           0        0.127853    0.510612    0.818303
 ---------------------------------------------------------------------
                    Distance matrix (angstroms):
                    1          2          3          4          5
     1  C    0.000000
     2  N    2.565301   0.000000
     3  H    1.261722   3.313891   0.000000
     4  H    1.261671   3.312535   2.274227   0.000000
     5  H    3.363896   1.170867   4.317384   3.770559   0.000000
     6  H    3.364420   1.170886   3.772929   4.316681   1.939647
     7  C    0.009811   2.555490   1.266011   1.265946   3.354504
     8  N    2.557549   0.007754   3.306609   3.305255   1.175225
     9  H    1.244572   3.295487   0.019277   2.262581   4.298302
    10  H    1.244542   3.294165   2.262592   0.019250   3.754783
    11  H    3.351832   1.167772   4.307715   3.755932   0.015552
    12  H    3.352352   1.167785   3.758304   4.307009   1.945571
                    6          7          8          9         10
     6  H    0.000000
     7  C    3.355026   0.000000
     8  N    1.175249   2.547738   0.000000
     9  H    3.757112   1.248799   3.288201   0.000000
    10  H    4.297630   1.248755   3.286881   2.250843   0.000000
    11  H    1.945574   3.342448   1.172047   4.288625   3.740171
    12  H    0.015549   3.342967   1.172064   3.742503   4.287950
                   11         12
    11  H    0.000000
    12  H    1.951391   0.000000
 Symmetry turned off by external request.
 Stoichiometry    C2H8N2(2+)
 Framework group  C1[X(C2H8N2)]
 Deg. of freedom    30
 Full point group                 C1      NOp   1
 Rotational constants (GHZ):     56.3157922      4.4771579      4.1474696
 Standard basis: 6-31G(d) (6D, 7F)
                         Coordinates in L301:                         
 ---------------------------------------------------------------------
 Center     Atomic      Atomic             Coordinates (Angstroms)
 Number     Number       Type             X           Y           Z
 ---------------------------------------------------------------------
      1          6           0       -3.171284    0.409959    0.231934
      2          7           0       -0.634141    0.080135    0.045143
      3          1           0       -3.565819    1.065378    1.235284
      4          1           0       -3.858526   -0.109366   -0.689919
      5          1           0       -0.112502   -0.520507   -0.813956
      6          1           0        0.141274    0.505178    0.812635
      7          6           0       -3.161578    0.408737    0.231194
      8          7           0       -0.641817    0.081028    0.045774
      9          1           0       -3.552170    1.057367    1.224278
     10          1           0       -3.841905   -0.105443   -0.681035
     11          1           0       -0.127437   -0.521110   -0.818250
     12          1           0        0.127853    0.510612    0.818303
 ---------------------------------------------------------------------
 FixB: optimizing general contractions.
 Ernie: Thresh=  0.10000D-02 Tol=  0.10000D-05 Strict=F.
 IA=     1 NL=   1 NS=   0.
 IA=     1 L=0 SC=0 ISt=    0 NBk=    0 NP=    0 IndPr=    0.
 IA=     1 NL=   2 NS=   1.
 IA=     1 L=1 SC=0 ISt=    0 NBk=    0 NP=    0 IndPr=    0.
 IA=     1 NL=   1 NS=   1.
 IA=     1 L=2 SC=2 ISt=    0 NBk=    0 NP=    0 IndPr=    0.
 IA=     2 NL=   1 NS=   0.
 IA=     2 L=0 SC=0 ISt=    0 NBk=    0 NP=    0 IndPr=    0.
 IA=     2 NL=   2 NS=   1.
 IA=     2 L=1 SC=0 ISt=    0 NBk=    0 NP=    0 IndPr=    0.
 IA=     2 NL=   1 NS=   1.
 IA=     2 L=2 SC=2 ISt=    0 NBk=    0 NP=    0 IndPr=    0.
 IA=     3 NL=   2 NS=   1.
 IA=     3 L=0 SC=0 ISt=    0 NBk=    0 NP=    0 IndPr=    0.
 IA=     4 NL=   2 NS=   1.
 IA=     4 L=0 SC=0 ISt=    0 NBk=    0 NP=    0 IndPr=    0.
 IA=     5 NL=   2 NS=   1.
 IA=     5 L=0 SC=0 ISt=    0 NBk=    0 NP=    0 IndPr=    0.
 IA=     6 NL=   2 NS=   1.
 IA=     6 L=0 SC=0 ISt=    0 NBk=    0 NP=    0 IndPr=    0.
 IA=     7 NL=   1 NS=   0.
 IA=     7 L=0 SC=0 ISt=    0 NBk=    0 NP=    0 IndPr=    0.
 IA=     7 NL=   2 NS=   1.
 IA=     7 L=1 SC=0 ISt=    0 NBk=    0 NP=    0 IndPr=    0.
 IA=     7 NL=   1 NS=   1.
 IA=     7 L=2 SC=2 ISt=    0 NBk=    0 NP=    0 IndPr=    0.
 IA=     8 NL=   1 NS=   0.
 IA=     8 L=0 SC=0 ISt=    0 NBk=    0 NP=    0 IndPr=    0.
 IA=     8 NL=   2 NS=   1.
 IA=     8 L=1 SC=0 ISt=    0 NBk=    0 NP=    0 IndPr=    0.
 IA=     8 NL=   1 NS=   1.
 IA=     8 L=2 SC=2 ISt=    0 NBk=    0 NP=    0 IndPr=    0.
 IA=     9 NL=   2 NS=   1.
 IA=     9 L=0 SC=0 ISt=    0 NBk=    0 NP=    0 IndPr=    0.
 IA=    10 NL=   2 NS=   1.
 IA=    10 L=0 SC=0 ISt=    0 NBk=    0 NP=    0 IndPr=    0.
 IA=    11 NL=   2 NS=   1.
 IA=    11 L=0 SC=0 ISt=    0 NBk=    0 NP=    0 IndPr=    0.
 IA=    12 NL=   2 NS=   1.
 IA=    12 L=0 SC=0 ISt=    0 NBk=    0 NP=    0 IndPr=    0.
 LdAtmC:  AtmChg=     6.000000     7.000000     1.000000     1.000000     1.000000
 LdAtmC:  AtmChg=     1.000000     6.000000     7.000000     1.000000     1.000000
 LdAtmC:  AtmChg=     1.000000     1.000000
 AtZEff=     -3.6000000     -4.5500000     -1.0000000     -1.0000000     -1.0000000
 AtZEff=     -1.0000000     -3.6000000     -4.5500000     -1.0000000     -1.0000000
 AtZEff=     -1.0000000     -1.0000000
 Integral buffers will be    131072 words long.
 Raffenetti 1 integral format.
 Two-electron integral symmetry is turned off.
    76 basis functions,   144 primitive gaussians,    76 cartesian basis functions
    16 alpha electrons       16 beta electrons
       nuclear repulsion energy      5509.9993948037 Hartrees.
 NAtoms=   12 NActive=   12 NUniq=   12 SFac= 7.50D-01 NAtFMM=   80 NAOKFM=F Big=F
 NPDir=0 NMtPBC=     1 NCelOv=     1 NCel=       1 NClECP=     1 NCelD=      1
         NCelK=      1 NCelE2=     1 NClLst=     1 CellRange=     0.0.
 One-electron integrals computed using PRISM.
 Entering OneElI...
 Calculate overlap and kinetic energy integrals
    NBasis =  76  MinDer = 0  MaxDer = 0
 Requested accuracy = 0.1000D-12
 PrsmSu:  NPrtUS=   2 ThrOK=T IAlg=1
 PRISM was handed    67066320 working-precision words and   528 shell-pairs
 PRISM was handed    67066320 working-precision words and   528 shell-pairs
 IPart=  1 NShTot=         264 NBatch=          26 AvBLen=        10.2
 IPart=  0 NShTot=         264 NBatch=          26 AvBLen=        10.2
 *** Overlap *** 
                1             2             3             4             5 
      1  0.100000D+01
      2  0.219059D+00  0.100000D+01
      3  0.000000D+00  0.000000D+00  0.100000D+01
      4  0.000000D+00  0.000000D+00  0.000000D+00  0.100000D+01
      5  0.000000D+00  0.000000D+00  0.000000D+00  0.000000D+00  0.100000D+01
      6  0.184261D+00  0.812273D+00  0.000000D+00  0.000000D+00  0.000000D+00
      7  0.000000D+00  0.000000D+00  0.569754D+00  0.000000D+00  0.000000D+00
      8  0.000000D+00  0.000000D+00  0.000000D+00  0.569754D+00  0.000000D+00
      9  0.000000D+00  0.000000D+00  0.000000D+00  0.000000D+00  0.569754D+00
     10  0.791027D-01  0.710235D+00  0.000000D+00  0.000000D+00  0.000000D+00
     11  0.791027D-01  0.710235D+00  0.000000D+00  0.000000D+00  0.000000D+00
     12  0.791027D-01  0.710235D+00  0.000000D+00  0.000000D+00  0.000000D+00
     13  0.000000D+00  0.000000D+00  0.000000D+00  0.000000D+00  0.000000D+00
     14  0.000000D+00  0.000000D+00  0.000000D+00  0.000000D+00  0.000000D+00
     15  0.000000D+00  0.000000D+00  0.000000D+00  0.000000D+00  0.000000D+00
     16  0.000000D+00  0.306866D-05  0.128207D-04 -0.166667D-05  0.000000D+00
     17  0.000000D+00  0.703060D-03  0.189962D-02 -0.246948D-03 -0.139855D-03
     18  0.000000D+00 -0.160494D-02 -0.407240D-02  0.567902D-03  0.321621D-03
     19  0.000000D+00  0.208640D-03  0.567902D-03  0.222306D-03 -0.418103D-04
     20  0.000000D+00  0.118160D-03  0.321621D-03 -0.418103D-04  0.272454D-03
     21  0.185223D-02  0.259579D-01  0.371466D-01 -0.482900D-02 -0.273482D-02
     22 -0.779957D-02 -0.816157D-01 -0.103060D+00  0.155849D-01  0.882625D-02
     23  0.101393D-02  0.106099D-01  0.155849D-01  0.147998D-01 -0.114740D-02
     24  0.574223D-03  0.600874D-02  0.882625D-02 -0.114740D-02  0.161760D-01
     25  0.238721D-05  0.420240D-02  0.101621D-01 -0.150474D-02 -0.852183D-03
     26  0.000000D+00  0.442604D-03  0.121484D-02  0.257561D-04 -0.894396D-04
     27  0.000000D+00  0.398702D-03  0.109387D-02 -0.142201D-03  0.234928D-04
     28  0.000000D+00 -0.861123D-03 -0.221377D-02 -0.915201D-03  0.174695D-03
     29  0.000000D+00 -0.487682D-03 -0.125373D-02  0.174695D-03 -0.112473D-02
     30  0.000000D+00  0.633979D-04  0.174695D-03  0.673792D-04  0.146213D-03
     31  0.145603D-01  0.178551D+00 -0.827235D-01  0.137424D+00  0.210376D+00
     32  0.736532D-01  0.399266D+00 -0.800677D-01  0.133012D+00  0.203622D+00
     33  0.145641D-01  0.178575D+00 -0.144118D+00 -0.108905D+00 -0.193317D+00
     34  0.736585D-01  0.399288D+00 -0.139479D+00 -0.105399D+00 -0.187094D+00
     35  0.000000D+00  0.637377D-05  0.191317D-04 -0.581976D-05 -0.654170D-05
     36  0.331406D-03  0.558239D-02  0.772124D-02 -0.234876D-02 -0.264013D-02
     37  0.000000D+00  0.635023D-05  0.206424D-04  0.000000D+00  0.361868D-05
     38  0.330759D-03  0.557372D-02  0.834864D-02  0.239980D-03  0.146354D-02
     39  0.998148D+00  0.219202D+00  0.194854D-01 -0.245438D-02 -0.148395D-02
     40  0.219202D+00  0.999893D+00  0.918667D-02 -0.115715D-02 -0.699626D-03
     41 -0.194854D-01 -0.918667D-02  0.999557D+00  0.369157D-04  0.223197D-04
     42  0.245438D-02  0.115715D-02  0.369157D-04  0.999846D+00 -0.281138D-05
     43  0.148395D-02  0.699626D-03  0.223197D-04 -0.281138D-05  0.999849D+00
     44  0.184251D+00  0.812238D+00  0.429236D-02 -0.540664D-03 -0.326892D-03
     45 -0.267772D-02 -0.913075D-02  0.569678D+00  0.638471D-05  0.386028D-05
     46  0.337283D-03  0.115010D-02  0.638471D-05  0.569728D+00  0.000000D+00
     47  0.203926D-03  0.695368D-03  0.386028D-05  0.000000D+00  0.569728D+00
     48  0.793141D-01  0.710204D+00 -0.876524D-02 -0.119387D-02 -0.721827D-03
     49  0.790883D-01  0.710161D+00  0.947561D-02  0.110439D-02 -0.721631D-03
     50  0.790860D-01  0.710161D+00  0.947558D-02 -0.119354D-02  0.667729D-03
     51 -0.500413D-04 -0.945292D-05  0.198950D-02 -0.157992D-01  0.000000D+00
     52 -0.302557D-04 -0.571536D-05  0.120288D-02  0.000000D+00 -0.157992D-01
     53  0.381099D-05  0.000000D+00  0.000000D+00  0.120321D-02  0.199006D-02
     54  0.000000D+00  0.329129D-05  0.137104D-04 -0.178290D-05 -0.100904D-05
     55  0.000000D+00  0.735546D-03  0.198146D-02 -0.257668D-03 -0.145828D-03
     56  0.000000D+00 -0.167444D-02 -0.423490D-02  0.591007D-03  0.334483D-03
     57  0.000000D+00  0.217744D-03  0.591007D-03  0.233067D-03 -0.434961D-04
     58  0.000000D+00  0.123233D-03  0.334483D-03 -0.434961D-04  0.285304D-03
     59  0.190612D-02  0.265197D-01  0.378573D-01 -0.492295D-02 -0.278616D-02
     60 -0.800232D-02 -0.831245D-01 -0.104619D+00  0.158413D-01  0.896546D-02
     61  0.104062D-02  0.108095D-01  0.158413D-01  0.151397D-01 -0.116586D-02
     62  0.588943D-03  0.611767D-02  0.896546D-02 -0.116586D-02  0.165399D-01
     63  0.260140D-05  0.437555D-02  0.105426D-01 -0.156276D-02 -0.884453D-03
     64  0.000000D+00  0.463037D-03  0.126715D-02  0.270333D-04 -0.932576D-04
     65  0.000000D+00  0.417294D-03  0.114146D-02 -0.148435D-03  0.245500D-04
     66  0.000000D+00 -0.896394D-03 -0.229692D-02 -0.957125D-03  0.181270D-03
     67  0.000000D+00 -0.507318D-03 -0.129995D-02  0.181270D-03 -0.117483D-02
     68  0.000000D+00  0.659715D-04  0.181270D-03  0.704410D-04  0.152774D-03
     69  0.158668D-01  0.186864D+00 -0.839914D-01  0.142764D+00  0.218828D+00
     70  0.754353D-01  0.406822D+00 -0.788217D-01  0.133977D+00  0.205359D+00
     71  0.158691D-01  0.186878D+00 -0.147896D+00 -0.113665D+00 -0.201342D+00
     72  0.754384D-01  0.406835D+00 -0.138785D+00 -0.106663D+00 -0.188939D+00
     73  0.000000D+00  0.694003D-05  0.207301D-04 -0.634103D-05 -0.715227D-05
     74  0.346656D-03  0.578555D-02  0.796807D-02 -0.243732D-02 -0.274913D-02
     75  0.000000D+00  0.691465D-05  0.223865D-04  0.000000D+00  0.397885D-05
     76  0.345986D-03  0.577665D-02  0.862285D-02  0.263072D-03  0.153257D-02
                6             7             8             9            10 
      6  0.100000D+01
      7  0.000000D+00  0.100000D+01
      8  0.000000D+00  0.000000D+00  0.100000D+01
      9  0.000000D+00  0.000000D+00  0.000000D+00  0.100000D+01
     10  0.629936D+00  0.000000D+00  0.000000D+00  0.000000D+00  0.100000D+01
     11  0.629936D+00  0.000000D+00  0.000000D+00  0.000000D+00  0.333333D+00
     12  0.629936D+00  0.000000D+00  0.000000D+00  0.000000D+00  0.333333D+00
     13  0.000000D+00  0.000000D+00  0.000000D+00  0.000000D+00  0.000000D+00
     14  0.000000D+00  0.000000D+00  0.000000D+00  0.000000D+00  0.000000D+00
     15  0.000000D+00  0.000000D+00  0.000000D+00  0.000000D+00  0.000000D+00
     16  0.307929D-02  0.118054D-01 -0.153468D-02 -0.869141D-03  0.000000D+00
     17  0.281723D-01  0.902728D-01 -0.117353D-01 -0.664609D-02  0.121028D-02
     18 -0.314297D-01 -0.867787D-01  0.133558D-01  0.756383D-02 -0.301868D-02
     19  0.408581D-02  0.133558D-01  0.142233D-01 -0.983285D-03  0.438261D-03
     20  0.231393D-02  0.756383D-02 -0.983285D-03  0.154027D-01  0.248201D-03
     21  0.108855D+00  0.238762D+00 -0.310387D-01 -0.175782D-01  0.397024D-01
     22 -0.212981D+00 -0.359001D+00  0.607288D-01  0.343927D-01 -0.114431D+00
     23  0.276872D-01  0.607288D-01  0.100254D+00 -0.447099D-02  0.180146D-01
     24  0.156802D-01  0.343927D-01 -0.447099D-02  0.105617D+00  0.102022D-01
     25  0.560420D-01  0.149583D+00 -0.236972D-01 -0.134205D-01  0.839271D-02
     26  0.243827D-01  0.793096D-01 -0.605852D-02 -0.583895D-02  0.700733D-03
     27  0.240130D-01  0.781071D-01 -0.101538D-01 -0.334261D-02  0.587879D-03
     28 -0.725109D-02 -0.199036D-01 -0.252573D-01  0.173643D-02 -0.198527D-02
     29 -0.410653D-02 -0.112721D-01  0.173643D-02 -0.273400D-01 -0.112432D-02
     30  0.533842D-03  0.173643D-02  0.185950D-02  0.355415D-02  0.162970D-03
     31  0.309825D+00 -0.153081D+00  0.254305D+00  0.389303D+00  0.947709D-01
     32  0.625541D+00 -0.187248D+00  0.311064D+00  0.476194D+00  0.298176D+00
     33  0.309844D+00 -0.266669D+00 -0.201513D+00 -0.357704D+00  0.145576D+00
     34  0.625565D+00 -0.326180D+00 -0.246483D+00 -0.437532D+00  0.315909D+00
     35  0.282554D-02  0.107068D-01 -0.325694D-02 -0.366096D-02  0.594862D-05
     36  0.357077D-01  0.828679D-01 -0.252080D-01 -0.283350D-01  0.768946D-02
     37  0.282076D-02  0.115754D-01  0.332733D-03  0.202920D-02  0.689437D-05
     38  0.356707D-01  0.896501D-01  0.257698D-02  0.157159D-01  0.853069D-02
     39  0.184251D+00  0.267772D-02 -0.337283D-03 -0.203926D-03  0.793141D-01
     40  0.812238D+00  0.913075D-02 -0.115010D-02 -0.695368D-03  0.710204D+00
     41 -0.429236D-02  0.569678D+00  0.638471D-05  0.386028D-05  0.876524D-02
     42  0.540664D-03  0.638471D-05  0.569728D+00  0.000000D+00  0.119387D-02
     43  0.326892D-03  0.386028D-05  0.000000D+00  0.569728D+00  0.721827D-03
     44  0.999971D+00  0.753384D-02 -0.948958D-03 -0.573752D-03  0.629919D+00
     45 -0.753384D-02  0.999914D+00  0.714950D-05  0.432268D-05 -0.453244D-02
     46  0.948958D-03  0.714950D-05  0.999970D+00  0.000000D+00  0.987343D-03
     47  0.573752D-03  0.432268D-05  0.000000D+00  0.999971D+00  0.596961D-03
     48  0.629919D+00  0.453244D-02 -0.987343D-03 -0.596961D-03  0.999683D+00
     49  0.629906D+00  0.783843D-02 -0.570884D-03 -0.596949D-03  0.333379D+00
     50  0.629906D+00  0.783843D-02 -0.987324D-03 -0.345164D-03  0.333378D+00
     51 -0.271713D-05  0.360613D-03 -0.286320D-02  0.000000D+00  0.195654D-04
     52 -0.164282D-05  0.218032D-03  0.000000D+00 -0.286320D-02  0.118295D-04
     53  0.000000D+00  0.000000D+00  0.218052D-03  0.360647D-03  0.149084D-05
     54  0.315185D-02  0.120471D-01 -0.156660D-02 -0.886622D-03  0.106439D-05
     55  0.287260D-01  0.917662D-01 -0.119332D-01 -0.675367D-02  0.127227D-02
     56 -0.319631D-01 -0.878892D-01  0.135461D-01  0.766646D-02 -0.316207D-02
     57  0.415647D-02  0.135461D-01  0.145181D-01 -0.996944D-03  0.459531D-03
     58  0.235237D-02  0.766646D-02 -0.996944D-03  0.157154D-01  0.260074D-03
     59  0.110316D+00  0.241233D+00 -0.313698D-01 -0.177539D-01  0.404925D-01
     60 -0.215185D+00 -0.360957D+00  0.611909D-01  0.346313D-01 -0.116255D+00
     61  0.279826D-01  0.611909D-01  0.101642D+00 -0.450344D-02  0.183233D-01
     62  0.158369D-01  0.346313D-01 -0.450344D-02  0.107051D+00  0.103702D-01
     63  0.569620D-01  0.151463D+00 -0.240209D-01 -0.135947D-01  0.877019D-02
     64  0.248663D-01  0.806379D-01 -0.616142D-02 -0.593466D-02  0.736439D-03
     65  0.244910D-01  0.794210D-01 -0.103279D-01 -0.339752D-02  0.618250D-03
     66 -0.735344D-02 -0.201009D-01 -0.257003D-01  0.175500D-02 -0.207577D-02
     67 -0.416171D-02 -0.113762D-01  0.175500D-02 -0.278080D-01 -0.117479D-02
     68  0.541188D-03  0.175500D-02  0.189145D-02  0.361614D-02  0.170453D-03
     69  0.316366D+00 -0.150915D+00  0.256517D+00  0.393189D+00  0.984917D-01
     70  0.633509D+00 -0.183072D+00  0.311176D+00  0.476970D+00  0.303779D+00
     71  0.316377D+00 -0.265724D+00 -0.204221D+00 -0.361751D+00  0.150396D+00
     72  0.633523D+00 -0.322341D+00 -0.247733D+00 -0.438827D+00  0.321188D+00
     73  0.293778D-02  0.110784D-01 -0.338871D-02 -0.382224D-02  0.653221D-05
     74  0.365698D-01  0.844542D-01 -0.258333D-01 -0.291383D-01  0.794380D-02
     75  0.293286D-02  0.119874D-01  0.365720D-03  0.213056D-02  0.758265D-05
     76  0.365323D-01  0.914435D-01  0.278983D-02  0.162526D-01  0.881990D-02
               11            12            13            14            15 
     11  0.100000D+01
     12  0.333333D+00  0.100000D+01
     13  0.000000D+00  0.000000D+00  0.100000D+01
     14  0.000000D+00  0.000000D+00  0.000000D+00  0.100000D+01
     15  0.000000D+00  0.000000D+00  0.000000D+00  0.000000D+00  0.100000D+01
     16  0.000000D+00  0.000000D+00  0.000000D+00  0.000000D+00  0.000000D+00
     17  0.850583D-04  0.719196D-04 -0.257713D-03 -0.145952D-03  0.189735D-04
     18 -0.236242D-03 -0.199635D-03  0.678335D-03  0.384163D-03 -0.528632D-04
     19 -0.151264D-04  0.259522D-04  0.212018D-03 -0.528632D-04 -0.156093D-04
     20  0.173927D-04 -0.112617D-04 -0.528632D-04  0.275423D-03 -0.358045D-04
     21  0.135004D-01  0.131945D-01 -0.600114D-02 -0.339864D-02  0.441818D-03
     22 -0.471213D-01 -0.460534D-01  0.182279D-01  0.103230D-01 -0.154210D-02
     23  0.298693D-02  0.598687D-02  0.181869D-01 -0.154210D-02 -0.133896D-02
     24  0.346918D-02  0.161297D-02 -0.154210D-02  0.200366D-01 -0.260472D-02
     25  0.700733D-03  0.587879D-03 -0.198527D-02 -0.112432D-02  0.162970D-03
     26  0.682383D-04  0.397415D-04  0.786833D-04 -0.847474D-04 -0.579285D-05
     27  0.397415D-04  0.774898D-04 -0.125542D-03  0.582096D-04 -0.756716D-05
     28  0.786833D-04 -0.125542D-03 -0.991340D-03  0.253157D-03  0.771818D-04
     29 -0.847474D-04  0.582096D-04  0.253157D-03 -0.129498D-02  0.178026D-03
     30 -0.579285D-05 -0.756716D-05  0.771818D-04  0.178026D-03  0.513246D-04
     31  0.138698D+00  0.231253D+00 -0.718262D-01 -0.109955D+00  0.182663D+00
     32  0.313499D+00  0.345785D+00 -0.250550D-01 -0.383555D-01  0.637178D-01
     33  0.113079D+00  0.206127D+00  0.991531D-01  0.176006D+00  0.133002D+00
     34  0.304575D+00  0.337029D+00  0.345833D-01  0.613887D-01  0.463893D-01
     35  0.000000D+00  0.000000D+00 -0.297761D-05 -0.334698D-05  0.101813D-05
     36  0.319646D-02  0.331718D-02 -0.260867D-02 -0.293228D-02  0.891984D-03
     37  0.000000D+00  0.000000D+00  0.000000D+00  0.200351D-05  0.000000D+00
     38  0.273848D-02  0.291184D-02  0.288618D-03  0.176017D-02  0.505957D-04
     39  0.790883D-01  0.790860D-01 -0.500413D-04 -0.302557D-04  0.381099D-05
     40  0.710161D+00  0.710161D+00 -0.945292D-05 -0.571536D-05  0.000000D+00
     41 -0.947561D-02 -0.947558D-02 -0.198950D-02 -0.120288D-02  0.000000D+00
     42 -0.110439D-02  0.119354D-02  0.157992D-01  0.000000D+00 -0.120321D-02
     43  0.721631D-03 -0.667729D-03  0.000000D+00  0.157992D-01 -0.199006D-02
     44  0.629906D+00  0.629906D+00 -0.271713D-05 -0.164282D-05  0.000000D+00
     45 -0.783843D-02 -0.783843D-02 -0.360613D-03 -0.218032D-03  0.000000D+00
     46  0.570884D-03  0.987324D-03  0.286320D-02  0.000000D+00 -0.218052D-03
     47  0.596949D-03  0.345164D-03  0.000000D+00  0.286320D-02 -0.360647D-03
     48  0.333379D+00  0.333378D+00  0.195654D-04  0.118295D-04  0.149084D-05
     49  0.999860D+00  0.333289D+00  0.195706D-04 -0.118327D-04 -0.149043D-05
     50  0.333289D+00  0.999861D+00 -0.195707D-04  0.118327D-04 -0.149044D-05
     51  0.195706D-04 -0.195707D-04  0.999589D+00 -0.258082D-05  0.204947D-04
     52 -0.118327D-04  0.118327D-04 -0.258082D-05  0.999592D+00  0.338973D-04
     53 -0.149043D-05 -0.149044D-05  0.204947D-04  0.338973D-04  0.999857D+00
     54  0.000000D+00  0.000000D+00  0.000000D+00  0.000000D+00  0.000000D+00
     55  0.898208D-04  0.759961D-04 -0.270910D-03 -0.153322D-03  0.199380D-04
     56 -0.248728D-03 -0.210321D-03  0.710776D-03  0.402267D-03 -0.553914D-04
     57 -0.159921D-04  0.273500D-04  0.224035D-03 -0.553914D-04 -0.164882D-04
     58  0.183055D-04 -0.118775D-04 -0.553914D-04  0.290559D-03 -0.377841D-04
     59  0.138227D-01  0.135109D-01 -0.611031D-02 -0.345816D-02  0.449698D-03
     60 -0.481002D-01 -0.470151D-01  0.184866D-01  0.104625D-01 -0.156486D-02
     61  0.304936D-02  0.611383D-02  0.185831D-01 -0.156486D-02 -0.136765D-02
     62  0.354001D-02  0.164595D-02 -0.156486D-02  0.204625D-01 -0.266093D-02
     63  0.736439D-03  0.618250D-03 -0.207577D-02 -0.117479D-02  0.170453D-03
     64  0.722891D-04  0.419816D-04  0.830012D-04 -0.890066D-04 -0.610860D-05
     65  0.419816D-04  0.820482D-04 -0.132029D-03  0.612593D-04 -0.796613D-05
     66  0.830012D-04 -0.132029D-03 -0.104505D-02  0.264605D-03  0.813629D-04
     67 -0.890066D-04  0.612593D-04  0.264605D-03 -0.136283D-02  0.187478D-03
     68 -0.610860D-05 -0.796613D-05  0.813629D-04  0.187478D-03  0.544936D-04
     69  0.145170D+00  0.241504D+00 -0.727439D-01 -0.111502D+00  0.189524D+00
     70  0.319429D+00  0.351729D+00 -0.243899D-01 -0.373848D-01  0.635445D-01
     71  0.119038D+00  0.215768D+00  0.101975D+00  0.180635D+00  0.138826D+00
     72  0.310675D+00  0.343104D+00  0.341882D-01  0.605600D-01  0.465431D-01
     73  0.000000D+00  0.106781D-05 -0.328628D-05 -0.370671D-05  0.113383D-05
     74  0.332365D-02  0.345348D-02 -0.270047D-02 -0.304596D-02  0.931714D-03
     75  0.000000D+00  0.000000D+00  0.000000D+00  0.223331D-05  0.000000D+00
     76  0.284755D-02  0.303082D-02  0.315889D-03  0.184027D-02  0.561442D-04
               16            17            18            19            20 
     16  0.100000D+01
     17  0.222216D+00  0.100000D+01
     18  0.000000D+00  0.000000D+00  0.100000D+01
     19  0.000000D+00  0.000000D+00  0.000000D+00  0.100000D+01
     20  0.000000D+00  0.000000D+00  0.000000D+00  0.000000D+00  0.100000D+01
     21  0.171869D+00  0.775507D+00  0.000000D+00  0.000000D+00  0.000000D+00
     22  0.000000D+00  0.000000D+00  0.519296D+00  0.000000D+00  0.000000D+00
     23  0.000000D+00  0.000000D+00  0.000000D+00  0.519296D+00  0.000000D+00
     24  0.000000D+00  0.000000D+00  0.000000D+00  0.000000D+00  0.519296D+00
     25  0.504134D-01  0.636041D+00  0.000000D+00  0.000000D+00  0.000000D+00
     26  0.504134D-01  0.636041D+00  0.000000D+00  0.000000D+00  0.000000D+00
     27  0.504134D-01  0.636041D+00  0.000000D+00  0.000000D+00  0.000000D+00
     28  0.000000D+00  0.000000D+00  0.000000D+00  0.000000D+00  0.000000D+00
     29  0.000000D+00  0.000000D+00  0.000000D+00  0.000000D+00  0.000000D+00
     30  0.000000D+00  0.000000D+00  0.000000D+00  0.000000D+00  0.000000D+00
     31  0.000000D+00  0.101313D-05 -0.289229D-05  0.000000D+00  0.117415D-05
     32  0.297811D-03  0.386467D-02 -0.464922D-02  0.156245D-02  0.188739D-02
     33  0.000000D+00  0.102457D-05 -0.321700D-05  0.000000D+00  0.000000D+00
     34  0.299317D-03  0.388115D-02 -0.513553D-02 -0.301821D-03 -0.117075D-02
     35  0.169320D-01  0.168428D+00  0.103520D+00 -0.119198D+00 -0.170489D+00
     36  0.655827D-01  0.361088D+00  0.849274D-01 -0.977897D-01 -0.139869D+00
     37  0.169304D-01  0.168418D+00  0.153872D+00  0.843451D-01  0.152300D+00
     38  0.655811D-01  0.361081D+00  0.126242D+00  0.691993D-01  0.124952D+00
     39  0.000000D+00  0.000000D+00  0.000000D+00  0.000000D+00  0.000000D+00
     40  0.335294D-05  0.744403D-03 -0.169336D-02  0.220161D-03  0.124653D-03
     41  0.139564D-04  0.200372D-02 -0.427905D-02  0.597118D-03  0.338083D-03
     42 -0.181452D-05 -0.260512D-03  0.597118D-03  0.236048D-03 -0.439554D-04
     43 -0.102736D-05 -0.147499D-03  0.338083D-03 -0.439554D-04  0.288794D-03
     44  0.317137D-02  0.288746D-01 -0.321060D-01  0.417422D-02  0.236340D-02
     45  0.121119D-01  0.921660D-01 -0.881857D-01  0.135931D-01  0.769629D-02
     46 -0.157472D-02 -0.119829D-01  0.135931D-01  0.145982D-01 -0.100062D-02
     47 -0.891591D-03 -0.678458D-02  0.769629D-02 -0.100062D-02  0.157990D-01
     48  0.109052D-05  0.128922D-02 -0.320120D-02  0.465208D-03  0.263396D-03
     49  0.000000D+00  0.911153D-04 -0.252114D-03 -0.162293D-04  0.185588D-04
     50  0.000000D+00  0.771187D-04 -0.213258D-03  0.277266D-04 -0.120491D-04
     51  0.000000D+00 -0.274441D-03  0.719426D-03  0.227387D-03 -0.560831D-04
     52  0.000000D+00 -0.155386D-03  0.407332D-03 -0.560831D-04  0.294687D-03
     53  0.000000D+00  0.202023D-04 -0.560831D-04 -0.167386D-04 -0.383134D-04
     54  0.998402D+00  0.222343D+00 -0.186641D-01  0.217302D-02  0.153306D-02
     55  0.222343D+00  0.999905D+00 -0.854490D-02  0.994864D-03  0.701870D-03
     56  0.186641D-01  0.854490D-02  0.999602D+00  0.306869D-04  0.216494D-04
     57 -0.217302D-02 -0.994864D-03  0.306869D-04  0.999862D+00 -0.252059D-05
     58 -0.153306D-02 -0.701870D-03  0.216494D-04 -0.252059D-05  0.999864D+00
     59  0.171862D+00  0.775480D+00 -0.346843D-02  0.403822D-03  0.284894D-03
     60  0.222173D-02  0.796573D-02  0.519239D+00  0.433052D-05  0.305515D-05
     61 -0.258671D-03 -0.927432D-03  0.433052D-05  0.519276D+00  0.000000D+00
     62 -0.182491D-03 -0.654298D-03  0.305515D-05  0.000000D+00  0.519276D+00
     63  0.505337D-01  0.636053D+00  0.967502D-02  0.741449D-03  0.523088D-03
     64  0.504076D-01  0.635990D+00 -0.636676D-02 -0.112662D-02  0.522960D-03
     65  0.504067D-01  0.635990D+00 -0.636675D-02  0.741267D-03 -0.794826D-03
     66 -0.257811D-04 -0.128774D-04 -0.161732D-02  0.138939D-01  0.000000D+00
     67 -0.181884D-04 -0.908493D-05 -0.114101D-02  0.000000D+00  0.138939D-01
     68  0.211763D-05  0.105774D-05  0.000000D+00 -0.114123D-02 -0.161764D-02
     69  0.000000D+00  0.117947D-05 -0.335161D-05  0.112244D-05  0.135434D-05
     70  0.318846D-03  0.409379D-02 -0.490605D-02  0.164301D-02  0.198247D-02
     71  0.000000D+00  0.119238D-05 -0.372473D-05  0.000000D+00  0.000000D+00
     72  0.320407D-03  0.411070D-02 -0.541579D-02 -0.313318D-03 -0.122604D-02
     73  0.171883D-01  0.169985D+00  0.101575D+00 -0.120527D+00 -0.173078D+00
     74  0.658498D-01  0.362319D+00  0.827851D-01 -0.982311D-01 -0.141061D+00
     75  0.171872D-01  0.169979D+00  0.152745D+00  0.862912D-01  0.154984D+00
     76  0.658487D-01  0.362314D+00  0.124493D+00  0.703302D-01  0.126317D+00
               21            22            23            24            25 
     21  0.100000D+01
     22  0.000000D+00  0.100000D+01
     23  0.000000D+00  0.000000D+00  0.100000D+01
     24  0.000000D+00  0.000000D+00  0.000000D+00  0.100000D+01
     25  0.670250D+00  0.000000D+00  0.000000D+00  0.000000D+00  0.100000D+01
     26  0.670250D+00  0.000000D+00  0.000000D+00  0.000000D+00  0.333333D+00
     27  0.670250D+00  0.000000D+00  0.000000D+00  0.000000D+00  0.333333D+00
     28  0.000000D+00  0.000000D+00  0.000000D+00  0.000000D+00  0.000000D+00
     29  0.000000D+00  0.000000D+00  0.000000D+00  0.000000D+00  0.000000D+00
     30  0.000000D+00  0.000000D+00  0.000000D+00  0.000000D+00  0.000000D+00
     31  0.130601D-02 -0.504055D-02  0.169397D-02  0.204625D-02  0.838740D-05
     32  0.271506D-01 -0.598454D-01  0.201121D-01  0.242947D-01  0.855128D-02
     33  0.131275D-02 -0.557246D-02 -0.327500D-03 -0.127035D-02  0.101660D-04
     34  0.272305D-01 -0.660142D-01 -0.387973D-02 -0.150493D-01  0.971208D-02
     35  0.333673D+00  0.233078D+00 -0.268378D+00 -0.383862D+00  0.152441D+00
     36  0.629740D+00  0.246982D+00 -0.284388D+00 -0.406761D+00  0.338739D+00
     37  0.333664D+00  0.346461D+00  0.189912D+00  0.342921D+00  0.224531D+00
     38  0.629731D+00  0.367134D+00  0.201244D+00  0.363382D+00  0.359202D+00
     39  0.192066D-02 -0.805692D-02  0.104751D-02  0.593091D-03  0.266131D-05
     40  0.266706D-01 -0.835289D-01  0.108599D-01  0.614878D-02  0.442262D-02
     41  0.380479D-01 -0.105036D+00  0.159055D-01  0.900552D-02  0.106458D-01
     42 -0.494676D-02  0.159055D-01  0.152323D-01 -0.117084D-02 -0.157807D-02
     43 -0.280080D-02  0.900552D-02 -0.117084D-02  0.166373D-01 -0.893487D-03
     44  0.110706D+00 -0.215773D+00  0.280535D-01  0.158836D-01  0.572084D-01
     45  0.241892D+00 -0.361476D+00  0.612967D-01  0.347056D-01  0.151965D+00
     46 -0.314493D-01  0.612967D-01  0.102018D+00 -0.451221D-02 -0.241007D-01
     47 -0.178063D-01  0.347056D-01 -0.451221D-02  0.107432D+00 -0.136456D-01
     48  0.407046D-01 -0.116744D+00  0.184009D-01  0.104184D-01  0.887302D-02
     49  0.139091D-01 -0.483621D-01  0.306515D-02  0.356006D-02  0.746103D-03
     50  0.135961D-01 -0.472736D-01  0.614623D-02  0.165533D-02  0.626594D-03
     51 -0.613784D-02  0.185505D-01  0.186911D-01 -0.157099D-02 -0.209985D-02
     52 -0.347519D-02  0.105031D-01 -0.157099D-02  0.205763D-01 -0.118891D-02
     53  0.451823D-03 -0.157099D-02 -0.137590D-02 -0.267520D-02  0.172497D-03
     54  0.171862D+00 -0.222173D-02  0.258671D-03  0.182491D-03  0.505337D-01
     55  0.775480D+00 -0.796573D-02  0.927432D-03  0.654298D-03  0.636053D+00
     56  0.346843D-02  0.519239D+00  0.433052D-05  0.305515D-05 -0.967502D-02
     57 -0.403822D-03  0.433052D-05  0.519276D+00  0.000000D+00 -0.741449D-03
     58 -0.284894D-03  0.305515D-05  0.000000D+00  0.519276D+00 -0.523088D-03
     59  0.999977D+00 -0.667920D-02  0.777644D-03  0.548623D-03  0.670239D+00
     60  0.667920D-02  0.999933D+00  0.519416D-05  0.366445D-05  0.332601D-02
     61 -0.777644D-03  0.519416D-05  0.999977D+00  0.000000D+00 -0.824036D-03
     62 -0.548623D-03  0.366445D-05  0.000000D+00  0.999977D+00 -0.581353D-03
     63  0.670239D+00 -0.332601D-02  0.824036D-03  0.581353D-03  0.999802D+00
     64  0.670226D+00 -0.707753D-02  0.387225D-03  0.581342D-03  0.333362D+00
     65  0.670226D+00 -0.707753D-02  0.824021D-03  0.273185D-03  0.333361D+00
     66 -0.252664D-05 -0.378250D-03  0.324902D-02  0.000000D+00  0.113121D-04
     67 -0.178253D-05 -0.266853D-03  0.000000D+00  0.324902D-02  0.798062D-05
     68  0.000000D+00  0.000000D+00 -0.266871D-03 -0.378276D-03  0.000000D+00
     69  0.140025D-02 -0.537972D-02  0.180164D-02  0.217387D-02  0.970237D-05
     70  0.282527D-01 -0.619847D-01  0.207583D-01  0.250472D-01  0.901209D-02
     71  0.140726D-02 -0.594351D-02 -0.343848D-03 -0.134550D-02  0.117434D-04
     72  0.283333D-01 -0.683336D-01 -0.395329D-02 -0.154695D-01  0.102231D-01
     73  0.335083D+00  0.227366D+00 -0.269788D+00 -0.387419D+00  0.150532D+00
     74  0.631233D+00  0.240480D+00 -0.285348D+00 -0.409764D+00  0.338958D+00
     75  0.335077D+00  0.341913D+00  0.193159D+00  0.346923D+00  0.222206D+00
     76  0.631227D+00  0.361636D+00  0.204301D+00  0.366935D+00  0.359166D+00
               26            27            28            29            30 
     26  0.100000D+01
     27  0.333333D+00  0.100000D+01
     28  0.000000D+00  0.000000D+00  0.100000D+01
     29  0.000000D+00  0.000000D+00  0.000000D+00  0.100000D+01
     30  0.000000D+00  0.000000D+00  0.000000D+00  0.000000D+00  0.100000D+01
     31  0.135020D-05  0.176162D-05 -0.461781D-05 -0.557816D-05  0.187464D-05
     32  0.381645D-02  0.409326D-02 -0.310699D-02 -0.375314D-02  0.126131D-02
     33  0.000000D+00  0.000000D+00  0.000000D+00  0.383268D-05  0.000000D+00
     34  0.324987D-02  0.356448D-02  0.660098D-03  0.256048D-02  0.150482D-03
     35  0.171863D+00  0.254507D+00 -0.118876D+00 -0.170029D+00  0.195780D+00
     36  0.344253D+00  0.367717D+00 -0.337506D-01 -0.482736D-01  0.555846D-01
     37  0.132402D+00  0.221853D+00  0.125040D+00  0.225782D+00  0.123762D+00
     38  0.333045D+00  0.358442D+00  0.355021D-01  0.641054D-01  0.351394D-01
     39  0.000000D+00  0.000000D+00  0.000000D+00  0.000000D+00  0.000000D+00
     40  0.468570D-03  0.422378D-03 -0.905725D-03 -0.512813D-03  0.666728D-04
     41  0.128128D-02  0.115445D-02 -0.231881D-02 -0.131289D-02  0.183060D-03
     42  0.273881D-04 -0.150094D-03 -0.968732D-03  0.183060D-03  0.713109D-04
     43 -0.943181D-04  0.248430D-04  0.183060D-03 -0.118840D-02  0.154509D-03
     44  0.249957D-01  0.246194D-01 -0.737873D-02 -0.417776D-02  0.543168D-03
     45  0.809926D-01  0.797732D-01 -0.201478D-01 -0.114075D-01  0.176000D-02
     46 -0.618710D-02 -0.103716D-01 -0.258207D-01  0.176000D-02  0.190073D-02
     47 -0.596207D-02 -0.341331D-02  0.176000D-02 -0.279327D-01  0.363164D-02
     48  0.746103D-03  0.626594D-03 -0.209985D-02 -0.118891D-02  0.172497D-03
     49  0.734093D-04  0.425928D-04  0.841817D-04 -0.901869D-04 -0.619684D-05
     50  0.425928D-04  0.832971D-04 -0.133773D-03  0.621089D-04 -0.807502D-05
     51  0.841817D-04 -0.133773D-03 -0.106002D-02  0.267732D-03  0.825545D-04
     52 -0.901869D-04  0.621089D-04  0.267732D-03 -0.138130D-02  0.189999D-03
     53 -0.619684D-05 -0.807502D-05  0.825545D-04  0.189999D-03  0.553755D-04
     54  0.504076D-01  0.504067D-01 -0.257811D-04 -0.181884D-04  0.211763D-05
     55  0.635990D+00  0.635990D+00 -0.128774D-04 -0.908493D-05  0.105774D-05
     56  0.636676D-02  0.636675D-02  0.161732D-02  0.114101D-02  0.000000D+00
     57  0.112662D-02 -0.741267D-03 -0.138939D-01  0.000000D+00  0.114123D-02
     58 -0.522960D-03  0.794826D-03  0.000000D+00 -0.138939D-01  0.161764D-02
     59  0.670226D+00  0.670226D+00 -0.252664D-05 -0.178253D-05  0.000000D+00
     60  0.707753D-02  0.707753D-02  0.378250D-03  0.266853D-03  0.000000D+00
     61 -0.387225D-03 -0.824021D-03 -0.324902D-02  0.000000D+00  0.266871D-03
     62 -0.581342D-03 -0.273185D-03  0.000000D+00 -0.324902D-02  0.378276D-03
     63  0.333362D+00  0.333361D+00  0.113121D-04  0.798062D-05  0.000000D+00
     64  0.999913D+00  0.333306D+00  0.113140D-04 -0.798198D-05  0.000000D+00
     65  0.333306D+00  0.999913D+00 -0.113140D-04  0.798196D-05  0.000000D+00
     66  0.113140D-04 -0.113140D-04  0.999744D+00 -0.160936D-05  0.138251D-04
     67 -0.798198D-05  0.798196D-05 -0.160936D-05  0.999745D+00  0.195964D-04
     68  0.000000D+00  0.000000D+00  0.138251D-04  0.195964D-04  0.999911D+00
     69  0.155879D-05  0.202778D-05 -0.532043D-05 -0.641967D-05  0.214991D-05
     70  0.403522D-02  0.432184D-02 -0.325153D-02 -0.392332D-02  0.131390D-02
     71  0.000000D+00  0.111033D-05  0.112303D-05  0.439448D-05  0.000000D+00
     72  0.344355D-02  0.376939D-02  0.681620D-03  0.266722D-02  0.154306D-03
     73  0.173714D+00  0.258692D+00 -0.116786D+00 -0.167707D+00  0.198997D+00
     74  0.345495D+00  0.369456D+00 -0.329312D-01 -0.472896D-01  0.561129D-01
     75  0.134716D+00  0.226000D+00  0.125739D+00  0.225834D+00  0.127582D+00
     76  0.334494D+00  0.360235D+00  0.354567D-01  0.636821D-01  0.359762D-01
               31            32            33            34            35 
     31  0.100000D+01
     32  0.658292D+00  0.100000D+01
     33  0.181046D-02  0.585138D-01  0.100000D+01
     34  0.585138D-01  0.225509D+00  0.658292D+00  0.100000D+01
     35  0.000000D+00  0.113149D-03  0.000000D+00  0.875423D-03  0.100000D+01
     36  0.113149D-03  0.466511D-02  0.875423D-03  0.166715D-01  0.658292D+00
     37  0.000000D+00  0.868206D-03  0.000000D+00  0.113467D-03  0.922276D-02
     38  0.868206D-03  0.165859D-01  0.113467D-03  0.467328D-02  0.113007D+00
     39  0.142483D-01  0.732105D-01  0.142530D-01  0.732172D-01  0.000000D+00
     40  0.176513D+00  0.397382D+00  0.176544D+00  0.397411D+00  0.681063D-05
     41 -0.836894D-01 -0.816346D-01 -0.144316D+00 -0.140756D+00  0.203784D-04
     42  0.135943D+00  0.132606D+00 -0.107283D+00 -0.104636D+00 -0.621057D-05
     43  0.207875D+00  0.202771D+00 -0.190734D+00 -0.186029D+00 -0.698524D-05
     44  0.308197D+00  0.623547D+00  0.308221D+00  0.623578D+00  0.291258D-02
     45 -0.156020D+00 -0.191243D+00 -0.269014D+00 -0.329736D+00  0.110021D-01
     46  0.253436D+00  0.310651D+00 -0.199982D+00 -0.245122D+00 -0.335302D-02
     47  0.387536D+00  0.475026D+00 -0.355540D+00 -0.435792D+00 -0.377125D-02
     48  0.946524D-01  0.297062D+00  0.145598D+00  0.315025D+00  0.640613D-05
     49  0.136948D+00  0.311964D+00  0.111265D+00  0.302931D+00  0.000000D+00
     50  0.228092D+00  0.344075D+00  0.202905D+00  0.335212D+00  0.103689D-05
     51 -0.726218D-01 -0.255860D-01  0.988133D-01  0.348084D-01 -0.321157D-05
     52 -0.111048D+00 -0.391242D-01  0.175676D+00  0.618845D-01 -0.361216D-05
     53  0.180384D+00  0.635526D-01  0.130595D+00  0.460041D-01  0.110085D-05
     54  0.000000D+00  0.305977D-03  0.000000D+00  0.307517D-03  0.165764D-01
     55  0.107605D-05  0.395390D-02  0.108815D-05  0.397070D-02  0.166251D+00
     56 -0.306391D-05 -0.474569D-02 -0.340855D-05 -0.524326D-02  0.103558D+00
     57  0.103145D-05  0.159761D-02  0.000000D+00 -0.310344D-03 -0.117687D+00
     58  0.124643D-05  0.193059D-02  0.000000D+00 -0.119919D-02 -0.168202D+00
     59  0.134258D-02  0.275822D-01  0.134948D-02  0.276630D-01  0.331691D+00
     60 -0.516834D-02 -0.606374D-01 -0.571499D-02 -0.669031D-01  0.235096D+00
     61  0.173989D-02  0.204133D-01 -0.338266D-03 -0.395994D-02 -0.267173D+00
     62  0.210253D-02  0.246678D-01 -0.130707D-02 -0.153014D-01 -0.381850D+00
     63  0.887280D-05  0.872260D-02  0.107582D-04  0.990739D-02  0.152103D+00
     64  0.143371D-05  0.390454D-02  0.000000D+00  0.332600D-02  0.169734D+00
     65  0.187136D-05  0.418799D-02  0.102560D-05  0.364833D-02  0.251186D+00
     66 -0.489204D-05 -0.316842D-02  0.105285D-05  0.677088D-03 -0.119059D+00
     67 -0.591165D-05 -0.382879D-02  0.406826D-05  0.261630D-02 -0.170162D+00
     68  0.199013D-05  0.128894D-02  0.000000D+00  0.154857D-03  0.193379D+00
     69  0.999383D+00  0.658177D+00  0.192386D-02  0.599739D-01  0.000000D+00
     70  0.658177D+00  0.999893D+00  0.599739D-01  0.228966D+00  0.122082D-03
     71  0.192375D-02  0.599725D-01  0.999385D+00  0.658177D+00  0.000000D+00
     72  0.599725D-01  0.228963D+00  0.658177D+00  0.999893D+00  0.924907D-03
     73  0.000000D+00  0.117595D-03  0.000000D+00  0.921216D-03  0.999598D+00
     74  0.117595D-03  0.477850D-02  0.921216D-03  0.172085D-01  0.658217D+00
     75  0.000000D+00  0.913642D-03  0.000000D+00  0.117926D-03  0.897948D-02
     76  0.913642D-03  0.171204D-01  0.117926D-03  0.478688D-02  0.111798D+00
               36            37            38            39            40 
     36  0.100000D+01
     37  0.113007D+00  0.100000D+01
     38  0.338444D+00  0.658292D+00  0.100000D+01
     39  0.343225D-03  0.000000D+00  0.342557D-03  0.100000D+01
     40  0.574000D-02  0.678557D-05  0.573112D-02  0.219059D+00  0.100000D+01
     41  0.791783D-02  0.219933D-04  0.856334D-02  0.000000D+00  0.000000D+00
     42 -0.241306D-02  0.000000D+00  0.250045D-03  0.000000D+00  0.000000D+00
     43 -0.271405D-02  0.387174D-05  0.150751D-02  0.000000D+00  0.000000D+00
     44  0.363774D-01  0.290767D-02  0.363398D-01  0.184261D+00  0.812273D+00
     45  0.841542D-01  0.118977D-01  0.910642D-01  0.000000D+00  0.000000D+00
     46 -0.256470D-01  0.347405D-03  0.265903D-02  0.000000D+00  0.000000D+00
     47 -0.288461D-01  0.209449D-02  0.160311D-01  0.000000D+00  0.000000D+00
     48  0.789326D-02  0.742787D-05  0.875775D-02  0.791027D-01  0.710235D+00
     49  0.329338D-02  0.000000D+00  0.282272D-02  0.791027D-01  0.710235D+00
     50  0.341820D-02  0.000000D+00  0.300174D-02  0.791027D-01  0.710235D+00
     51 -0.267673D-02  0.000000D+00  0.300420D-03  0.000000D+00  0.000000D+00
     52 -0.301060D-02  0.216710D-05  0.181122D-02  0.000000D+00  0.000000D+00
     53  0.917518D-03  0.000000D+00  0.528865D-04  0.000000D+00  0.000000D+00
     54  0.652072D-01  0.165745D-01  0.652052D-01  0.000000D+00  0.359525D-05
     55  0.359356D+00  0.166239D+00  0.359347D+00  0.000000D+00  0.778662D-03
     56  0.857519D-01  0.153196D+00  0.126862D+00  0.000000D+00 -0.176637D-02
     57 -0.974520D-01  0.829762D-01  0.687128D-01  0.000000D+00  0.229726D-03
     58 -0.139281D+00  0.150021D+00  0.124232D+00  0.000000D+00  0.129981D-03
     59  0.627637D+00  0.331680D+00  0.627626D+00  0.197632D-02  0.272456D-01
     60  0.249780D+00  0.347799D+00  0.369528D+00 -0.826536D-02 -0.850650D-01
     61 -0.283860D+00  0.188381D+00  0.200150D+00  0.107495D-02  0.110631D-01
     62 -0.405701D+00  0.340591D+00  0.361870D+00  0.608220D-03  0.625964D-02
     63  0.337582D+00  0.223988D+00  0.358185D+00  0.289907D-05  0.460395D-02
     64  0.342637D+00  0.130446D+00  0.331368D+00  0.000000D+00  0.490116D-03
     65  0.365986D+00  0.218558D+00  0.356628D+00  0.000000D+00  0.441996D-03
     66 -0.341305D-01  0.124189D+00  0.356031D-01  0.000000D+00 -0.942635D-03
     67 -0.487802D-01  0.224533D+00  0.643702D-01  0.000000D+00 -0.533353D-03
     68  0.554358D-01  0.121615D+00  0.348652D-01  0.000000D+00  0.693654D-04
     69  0.122082D-03  0.000000D+00  0.917442D-03  0.155359D-01  0.184790D+00
     70  0.489129D-02  0.917442D-03  0.171646D-01  0.749943D-01  0.404956D+00
     71  0.924907D-03  0.000000D+00  0.122408D-03  0.155393D-01  0.184812D+00
     72  0.172513D-01  0.122408D-03  0.489943D-02  0.749989D-01  0.404975D+00
     73  0.658217D+00  0.897934D-02  0.111798D+00  0.000000D+00  0.741351D-05
     74  0.999930D+00  0.111798D+00  0.336207D+00  0.358962D-03  0.594814D-02
     75  0.111798D+00  0.999598D+00  0.658217D+00  0.000000D+00  0.738650D-05
     76  0.336208D+00  0.658217D+00  0.999930D+00  0.358271D-03  0.593903D-02
               41            42            43            44            45 
     41  0.100000D+01
     42  0.000000D+00  0.100000D+01
     43  0.000000D+00  0.000000D+00  0.100000D+01
     44  0.000000D+00  0.000000D+00  0.000000D+00  0.100000D+01
     45  0.569754D+00  0.000000D+00  0.000000D+00  0.000000D+00  0.100000D+01
     46  0.000000D+00  0.569754D+00  0.000000D+00  0.000000D+00  0.000000D+00
     47  0.000000D+00  0.000000D+00  0.569754D+00  0.000000D+00  0.000000D+00
     48  0.000000D+00  0.000000D+00  0.000000D+00  0.629936D+00  0.000000D+00
     49  0.000000D+00  0.000000D+00  0.000000D+00  0.629936D+00  0.000000D+00
     50  0.000000D+00  0.000000D+00  0.000000D+00  0.629936D+00  0.000000D+00
     51  0.000000D+00  0.000000D+00  0.000000D+00  0.000000D+00  0.000000D+00
     52  0.000000D+00  0.000000D+00  0.000000D+00  0.000000D+00  0.000000D+00
     53  0.000000D+00  0.000000D+00  0.000000D+00  0.000000D+00  0.000000D+00
     54  0.149208D-04 -0.194053D-05 -0.109797D-05  0.324581D-02  0.123586D-01
     55  0.208965D-02 -0.271770D-03 -0.153770D-03  0.294400D-01  0.936825D-01
     56 -0.444894D-02  0.621296D-03  0.351536D-03 -0.326480D-01 -0.893042D-01
     57  0.621296D-03  0.247429D-03 -0.457191D-04  0.424605D-02  0.137854D-01
     58  0.351536D-03 -0.457191D-04  0.302364D-03  0.240246D-02  0.779994D-02
     59  0.387722D-01 -0.504253D-02 -0.285311D-02  0.112185D+00  0.244380D+00
     60 -0.106614D+00  0.161655D-01  0.914658D-02 -0.217992D+00 -0.363408D+00
     61  0.161655D-01  0.155808D-01 -0.118956D-02  0.283510D-01  0.617588D-01
     62  0.914658D-02 -0.118956D-02  0.170102D-01  0.160413D-01  0.349437D-01
     63  0.110420D-01 -0.163859D-02 -0.927134D-03  0.581430D-01  0.153861D+00
     64  0.133619D-02  0.287398D-04 -0.983261D-04  0.254896D-01  0.823419D-01
     65  0.120445D-02 -0.156645D-03  0.259560D-04  0.251076D-01  0.811080D-01
     66 -0.240540D-02 -0.101291D-02  0.189911D-03 -0.748216D-02 -0.203450D-01
     67 -0.136100D-02  0.189911D-03 -0.124110D-02 -0.423348D-02 -0.115114D-01
     68  0.189911D-03  0.745365D-04  0.161412D-03  0.550587D-03  0.177863D-02
     69 -0.850724D-01  0.141274D+00  0.216297D+00  0.314749D+00 -0.153968D+00
     70 -0.804443D-01  0.133588D+00  0.204530D+00  0.631546D+00 -0.187156D+00
     71 -0.148197D+00 -0.112005D+00 -0.198713D+00  0.314766D+00 -0.268193D+00
     72 -0.140124D+00 -0.105903D+00 -0.187887D+00  0.631566D+00 -0.325996D+00
     73  0.220741D-04 -0.676487D-05 -0.763498D-05  0.302787D-02  0.113822D-01
     74  0.816980D-02 -0.250373D-02 -0.282576D-02  0.372526D-01  0.857567D-01
     75  0.238442D-04  0.000000D+00  0.425580D-05  0.302282D-02  0.123193D-01
     76  0.884340D-02  0.273884D-03  0.157840D-02  0.372145D-01  0.928771D-01
               46            47            48            49            50 
     46  0.100000D+01
     47  0.000000D+00  0.100000D+01
     48  0.000000D+00  0.000000D+00  0.100000D+01
     49  0.000000D+00  0.000000D+00  0.333333D+00  0.100000D+01
     50  0.000000D+00  0.000000D+00  0.333333D+00  0.333333D+00  0.100000D+01
     51  0.000000D+00  0.000000D+00  0.000000D+00  0.000000D+00  0.000000D+00
     52  0.000000D+00  0.000000D+00  0.000000D+00  0.000000D+00  0.000000D+00
     53  0.000000D+00  0.000000D+00  0.000000D+00  0.000000D+00  0.000000D+00
     54 -0.160731D-02 -0.909431D-03  0.119456D-05  0.000000D+00  0.000000D+00
     55 -0.121839D-01 -0.689378D-02  0.135494D-02  0.961965D-04  0.814728D-04
     56  0.137854D-01  0.779994D-02 -0.335243D-02 -0.265380D-03 -0.224623D-03
     57  0.148997D-01 -0.101442D-02  0.487669D-03 -0.171540D-04  0.292135D-04
     58 -0.101442D-02  0.161186D-01  0.275928D-03  0.195284D-04 -0.127051D-04
     59 -0.317829D-01 -0.179831D-01  0.415107D-01  0.142399D-01  0.139209D-01
     60  0.617588D-01  0.349437D-01 -0.118591D+00 -0.493617D-01 -0.482559D-01
     61  0.103425D+00 -0.454462D-02  0.187143D-01  0.312890D-02  0.627594D-02
     62 -0.454462D-02  0.108885D+00  0.105887D-01  0.363236D-02  0.168900D-02
     63 -0.244278D-01 -0.138215D-01  0.926960D-02  0.783938D-03  0.658810D-03
     64 -0.629165D-02 -0.605926D-02  0.783938D-03  0.777500D-04  0.449841D-04
     65 -0.105485D-01 -0.346908D-02  0.658810D-03  0.449841D-04  0.881778D-04
     66 -0.262712D-01  0.177863D-02 -0.219498D-02  0.887786D-04 -0.140651D-03
     67  0.177863D-02 -0.284083D-01 -0.124194D-02 -0.946967D-04  0.653468D-04
     68  0.193321D-02  0.369466D-02  0.180370D-03 -0.653292D-05 -0.849869D-05
     69  0.255684D+00  0.391464D+00  0.983905D-01  0.143393D+00  0.238294D+00
     70  0.310797D+00  0.475846D+00  0.302673D+00  0.317909D+00  0.350040D+00
     71 -0.202696D+00 -0.359611D+00  0.150485D+00  0.117173D+00  0.212473D+00
     72 -0.246382D+00 -0.437118D+00  0.320320D+00  0.309043D+00  0.341305D+00
     73 -0.348821D-02 -0.393687D-02  0.703189D-05  0.000000D+00  0.115536D-05
     74 -0.262811D-01 -0.296614D-01  0.815319D-02  0.342396D-02  0.355817D-02
     75  0.381534D-03  0.219879D-02  0.816632D-05  0.000000D+00  0.000000D+00
     76  0.287644D-02  0.165770D-01  0.905337D-02  0.293475D-02  0.312398D-02
               51            52            53            54            55 
     51  0.100000D+01
     52  0.000000D+00  0.100000D+01
     53  0.000000D+00  0.000000D+00  0.100000D+01
     54  0.000000D+00  0.000000D+00  0.000000D+00  0.100000D+01
     55 -0.288425D-03 -0.163194D-03  0.212242D-04  0.222216D+00  0.100000D+01
     56  0.753646D-03  0.426421D-03 -0.587510D-04  0.000000D+00  0.000000D+00
     57  0.240218D-03 -0.587510D-04 -0.176768D-04  0.000000D+00  0.000000D+00
     58 -0.587510D-04  0.310811D-03 -0.404227D-04  0.000000D+00  0.000000D+00
     59 -0.624879D-02 -0.353563D-02  0.459828D-03  0.171869D+00  0.775507D+00
     60  0.188111D-01  0.106435D-01 -0.159397D-02  0.000000D+00  0.000000D+00
     61  0.190963D-01 -0.159397D-02 -0.140523D-02  0.000000D+00  0.000000D+00
     62 -0.159397D-02  0.210115D-01 -0.273266D-02  0.000000D+00  0.000000D+00
     63 -0.219498D-02 -0.124194D-02  0.180370D-03  0.504134D-01  0.636041D+00
     64  0.887786D-04 -0.946967D-04 -0.653292D-05  0.504134D-01  0.636041D+00
     65 -0.140651D-03  0.653468D-04 -0.849869D-05  0.504134D-01  0.636041D+00
     66 -0.111715D-02  0.279763D-03  0.870041D-04  0.000000D+00  0.000000D+00
     67  0.279763D-03 -0.145331D-02  0.200039D-03  0.000000D+00  0.000000D+00
     68  0.870041D-04  0.200039D-03  0.587807D-04  0.000000D+00  0.000000D+00
     69 -0.736419D-01 -0.112749D+00  0.187235D+00  0.000000D+00  0.125235D-05
     70 -0.249324D-01 -0.381727D-01  0.633908D-01  0.327544D-03  0.418783D-02
     71  0.101696D+00  0.180424D+00  0.136361D+00  0.000000D+00  0.126600D-05
     72  0.344270D-01  0.610785D-01  0.461621D-01  0.329142D-03  0.420507D-02
     73 -0.354318D-05 -0.399891D-05  0.122551D-05  0.168351D-01  0.167836D+00
     74 -0.277051D-02 -0.312686D-02  0.958260D-03  0.654810D-01  0.360619D+00
     75  0.000000D+00  0.241474D-05  0.000000D+00  0.168336D-01  0.167827D+00
     76  0.328532D-03  0.189334D-02  0.586375D-04  0.654795D-01  0.360612D+00
               56            57            58            59            60 
     56  0.100000D+01
     57  0.000000D+00  0.100000D+01
     58  0.000000D+00  0.000000D+00  0.100000D+01
     59  0.000000D+00  0.000000D+00  0.000000D+00  0.100000D+01
     60  0.519296D+00  0.000000D+00  0.000000D+00  0.000000D+00  0.100000D+01
     61  0.000000D+00  0.519296D+00  0.000000D+00  0.000000D+00  0.000000D+00
     62  0.000000D+00  0.000000D+00  0.519296D+00  0.000000D+00  0.000000D+00
     63  0.000000D+00  0.000000D+00  0.000000D+00  0.670250D+00  0.000000D+00
     64  0.000000D+00  0.000000D+00  0.000000D+00  0.670250D+00  0.000000D+00
     65  0.000000D+00  0.000000D+00  0.000000D+00  0.670250D+00  0.000000D+00
     66  0.000000D+00  0.000000D+00  0.000000D+00  0.000000D+00  0.000000D+00
     67  0.000000D+00  0.000000D+00  0.000000D+00  0.000000D+00  0.000000D+00
     68  0.000000D+00  0.000000D+00  0.000000D+00  0.000000D+00  0.000000D+00
     69 -0.354939D-05  0.119072D-05  0.143727D-05  0.143927D-02 -0.551531D-02
     70 -0.500723D-02  0.167978D-02  0.202760D-02  0.286996D-01 -0.627994D-01
     71 -0.394530D-05  0.000000D+00  0.000000D+00  0.144644D-02 -0.609465D-02
     72 -0.552871D-02 -0.322162D-03 -0.125569D-02  0.287811D-01 -0.692475D-01
     73  0.101687D+00 -0.119035D+00 -0.170807D+00  0.333136D+00  0.229463D+00
     74  0.836336D-01 -0.979023D-01 -0.140483D+00  0.629171D+00  0.243325D+00
     75  0.152146D+00  0.849186D-01  0.152711D+00  0.333128D+00  0.343338D+00
     76  0.125139D+00  0.698451D-01  0.125604D+00  0.629163D+00  0.364085D+00
               61            62            63            64            65 
     61  0.100000D+01
     62  0.000000D+00  0.100000D+01
     63  0.000000D+00  0.000000D+00  0.100000D+01
     64  0.000000D+00  0.000000D+00  0.333333D+00  0.100000D+01
     65  0.000000D+00  0.000000D+00  0.333333D+00  0.333333D+00  0.100000D+01
     66  0.000000D+00  0.000000D+00  0.000000D+00  0.000000D+00  0.000000D+00
     67  0.000000D+00  0.000000D+00  0.000000D+00  0.000000D+00  0.000000D+00
     68  0.000000D+00  0.000000D+00  0.000000D+00  0.000000D+00  0.000000D+00
     69  0.185023D-02  0.223335D-02  0.102606D-04  0.165470D-05  0.215344D-05
     70  0.210674D-01  0.254297D-01  0.919157D-02  0.412790D-02  0.442136D-02
     71 -0.355140D-03 -0.138422D-02  0.124236D-04  0.000000D+00  0.118109D-05
     72 -0.403511D-02 -0.157276D-01  0.104275D-01  0.352381D-02  0.385762D-02
     73 -0.268611D+00 -0.385438D+00  0.150235D+00  0.171614D+00  0.255392D+00
     74 -0.284839D+00 -0.408723D+00  0.337823D+00  0.343909D+00  0.367757D+00
     75  0.191631D+00  0.344614D+00  0.221747D+00  0.132762D+00  0.222709D+00
     76  0.203210D+00  0.365437D+00  0.358176D+00  0.332845D+00  0.358450D+00
               66            67            68            69            70 
     66  0.100000D+01
     67  0.000000D+00  0.100000D+01
     68  0.000000D+00  0.000000D+00  0.100000D+01
     69 -0.563458D-05 -0.680130D-05  0.228164D-05  0.100000D+01
     70 -0.331537D-02 -0.400187D-02  0.134251D-02  0.658292D+00  0.100000D+01
     71  0.119639D-05  0.466318D-05  0.000000D+00  0.204475D-02  0.614746D-01
     72  0.699145D-03  0.272505D-02  0.158791D-03  0.614746D-01  0.232486D+00
     73 -0.117052D+00 -0.167961D+00  0.196617D+00  0.000000D+00  0.126862D-03
     74 -0.333196D-01 -0.478113D-01  0.559683D-01  0.126862D-03  0.500975D-02
     75  0.124947D+00  0.224695D+00  0.125411D+00  0.000000D+00  0.965199D-03
     76  0.355684D-01  0.639634D-01  0.357005D-01  0.965199D-03  0.177148D-01
               71            72            73            74            75 
     71  0.100000D+01
     72  0.658292D+00  0.100000D+01
     73  0.000000D+00  0.973030D-03  0.100000D+01
     74  0.973030D-03  0.178040D-01  0.658292D+00  0.100000D+01
     75  0.000000D+00  0.127201D-03  0.874605D-02  0.110620D+00  0.100000D+01
     76  0.127201D-03  0.501810D-02  0.110620D+00  0.334019D+00  0.658292D+00
               76 
     76  0.100000D+01
 *** Kinetic Energy *** 
                1             2             3             4             5 
      1  0.162076D+02
      2 -0.124757D+01  0.932246D+00
      3  0.000000D+00  0.000000D+00  0.217833D+01
      4  0.000000D+00  0.000000D+00  0.000000D+00  0.217833D+01
      5  0.000000D+00  0.000000D+00  0.000000D+00  0.000000D+00  0.217833D+01
      6  0.899505D-01  0.306718D+00  0.000000D+00  0.000000D+00  0.000000D+00
      7  0.000000D+00  0.000000D+00  0.376673D+00  0.000000D+00  0.000000D+00
      8  0.000000D+00  0.000000D+00  0.000000D+00  0.376673D+00  0.000000D+00
      9  0.000000D+00  0.000000D+00  0.000000D+00  0.000000D+00  0.376673D+00
     10 -0.524817D+00  0.520042D+00  0.000000D+00  0.000000D+00  0.000000D+00
     11 -0.524817D+00  0.520042D+00  0.000000D+00  0.000000D+00  0.000000D+00
     12 -0.524817D+00  0.520042D+00  0.000000D+00  0.000000D+00  0.000000D+00
     13  0.000000D+00  0.000000D+00  0.000000D+00  0.000000D+00  0.000000D+00
     14  0.000000D+00  0.000000D+00  0.000000D+00  0.000000D+00  0.000000D+00
     15  0.000000D+00  0.000000D+00  0.000000D+00  0.000000D+00  0.000000D+00
     16  0.000000D+00 -0.306666D-04 -0.115792D-03  0.150528D-04  0.852490D-05
     17 -0.247324D-05 -0.267649D-02 -0.604030D-02  0.785229D-03  0.444701D-03
     18  0.101862D-04  0.517628D-02  0.105234D-01 -0.149301D-02 -0.845541D-03
     19 -0.132419D-05 -0.672908D-03 -0.149301D-02 -0.767330D-03  0.109919D-03
     20  0.000000D+00 -0.381090D-03 -0.845541D-03  0.109919D-03 -0.899168D-03
     21 -0.243779D-02 -0.159704D-01 -0.133011D-01  0.172912D-02  0.979255D-03
     22  0.712219D-02  0.251455D-01  0.358293D-03 -0.829791D-03 -0.469938D-03
     23 -0.925873D-03 -0.326888D-02 -0.829791D-03 -0.591692D-02  0.610912D-04
     24 -0.524352D-03 -0.185127D-02 -0.469938D-03  0.610912D-04 -0.599020D-02
     25 -0.365593D-04 -0.118022D-01 -0.216797D-01  0.331111D-02  0.187519D-02
     26 -0.104445D-05 -0.183335D-02 -0.426213D-02  0.612934D-04  0.313788D-03
     27  0.000000D+00 -0.171695D-02 -0.401449D-02  0.521878D-03  0.164805D-04
     28  0.813413D-05  0.228320D-02  0.443066D-02  0.265133D-02 -0.357615D-03
     29  0.460662D-05  0.129305D-02  0.250923D-02 -0.357615D-03  0.308026D-02
     30  0.000000D+00 -0.168095D-03 -0.357615D-03 -0.195197D-03 -0.400429D-03
     31 -0.277857D-01 -0.191609D-01 -0.289787D-01  0.481406D-01  0.736963D-01
     32  0.140940D-01  0.788745D-01 -0.361352D-01  0.600293D-01  0.918961D-01
     33 -0.277889D-01 -0.191487D-01 -0.504987D-01 -0.381601D-01 -0.677380D-01
     34  0.140967D-01  0.788844D-01 -0.629498D-01 -0.475690D-01 -0.844396D-01
     35  0.000000D+00 -0.389574D-04 -0.105755D-03  0.321701D-04  0.361608D-04
     36 -0.493178D-03 -0.480723D-02 -0.502211D-02  0.152770D-02  0.171721D-02
     37  0.000000D+00 -0.388273D-04 -0.114151D-03 -0.328124D-05 -0.200109D-04
     38 -0.492415D-03 -0.480193D-02 -0.543345D-02 -0.156184D-03 -0.952500D-03
     39  0.160610D+02 -0.124364D+01  0.162222D+00 -0.204334D-01 -0.123543D-01
     40 -0.124364D+01  0.931683D+00 -0.698230D-02  0.879487D-03  0.531749D-03
     41 -0.162222D+00  0.698230D-02  0.217608D+01  0.187879D-03  0.113594D-03
     42  0.204334D-01 -0.879487D-03  0.187879D-03  0.217755D+01 -0.143083D-04
     43  0.123543D-01 -0.531749D-03  0.113594D-03 -0.143083D-04  0.217756D+01
     44  0.899421D-01  0.306696D+00  0.283770D-02 -0.357435D-03 -0.216110D-03
     45 -0.217932D-02 -0.571249D-02  0.376602D+00  0.593627D-05  0.358915D-05
     46  0.274505D-03  0.719543D-03  0.593627D-05  0.376649D+00  0.000000D+00
     47  0.165970D-03  0.435045D-03  0.358915D-05  0.000000D+00  0.376649D+00
     48 -0.523593D+00  0.519879D+00 -0.448931D-01 -0.117974D-02 -0.713283D-03
     49 -0.524695D+00  0.519927D+00  0.935531D-02  0.565606D-02 -0.712470D-03
     50 -0.524707D+00  0.519928D+00  0.935520D-02 -0.117838D-02  0.341974D-02
     51 -0.244445D-03  0.107156D-04  0.591644D-02 -0.469895D-01  0.000000D+00
     52 -0.147794D-03  0.647879D-05  0.357716D-02  0.000000D+00 -0.469897D-01
     53  0.186161D-04  0.000000D+00  0.000000D+00  0.357857D-02  0.591879D-02
     54  0.000000D+00 -0.326696D-04 -0.122902D-03  0.159821D-04  0.904513D-05
     55 -0.268667D-05 -0.277859D-02 -0.624319D-02  0.811862D-03  0.459477D-03
     56  0.110282D-04  0.535247D-02  0.108246D-01 -0.153734D-02 -0.870062D-03
     57 -0.143410D-05 -0.696033D-03 -0.153734D-02 -0.797561D-03  0.113143D-03
     58  0.000000D+00 -0.393923D-03 -0.870062D-03  0.113143D-03 -0.933442D-03
     59 -0.248668D-02 -0.161417D-01 -0.133019D-01  0.172977D-02  0.978970D-03
     60  0.721471D-02  0.250663D-01 -0.380399D-03 -0.736419D-03 -0.416780D-03
     61 -0.938198D-03 -0.325961D-02 -0.736419D-03 -0.594767D-02  0.541979D-04
     62 -0.530977D-03 -0.184479D-02 -0.416780D-03  0.541979D-04 -0.601276D-02
     63 -0.395491D-04 -0.121607D-01 -0.221918D-01  0.339478D-02  0.192129D-02
     64 -0.113379D-05 -0.190471D-02 -0.440975D-02  0.644662D-04  0.324542D-03
     65  0.000000D+00 -0.178480D-02 -0.415609D-02  0.540456D-03  0.178164D-04
     66  0.880132D-05  0.234975D-02  0.452998D-02  0.274323D-02 -0.365831D-03
     67  0.498115D-05  0.132985D-02  0.256376D-02 -0.365831D-03  0.318259D-02
     68  0.000000D+00 -0.172933D-03 -0.365831D-03 -0.201892D-03 -0.413862D-03
     69 -0.288302D-01 -0.148954D-01 -0.319585D-01  0.543212D-01  0.832635D-01
     70  0.149969D-01  0.822227D-01 -0.359671D-01  0.611348D-01  0.937073D-01
     71 -0.288320D-01 -0.148876D-01 -0.562817D-01 -0.432550D-01 -0.766206D-01
     72  0.149985D-01  0.822286D-01 -0.633302D-01 -0.486721D-01 -0.862163D-01
     73  0.000000D+00 -0.420714D-04 -0.113557D-03  0.347356D-04  0.391795D-04
     74 -0.511037D-03 -0.493040D-02 -0.511084D-02  0.156333D-02  0.176334D-02
     75  0.000000D+00 -0.419324D-04 -0.122679D-03 -0.374279D-05 -0.218043D-04
     76 -0.510256D-03 -0.492505D-02 -0.553418D-02 -0.168841D-03 -0.983612D-03
                6             7             8             9            10 
      6  0.253072D+00
      7  0.000000D+00  0.421786D+00
      8  0.000000D+00  0.000000D+00  0.421786D+00
      9  0.000000D+00  0.000000D+00  0.000000D+00  0.421786D+00
     10  0.226288D+00  0.000000D+00  0.000000D+00  0.000000D+00  0.173333D+01
     11  0.226288D+00  0.000000D+00  0.000000D+00  0.000000D+00 -0.133333D+00
     12  0.226288D+00  0.000000D+00  0.000000D+00  0.000000D+00 -0.133333D+00
     13  0.000000D+00  0.000000D+00  0.000000D+00  0.000000D+00  0.000000D+00
     14  0.000000D+00  0.000000D+00  0.000000D+00  0.000000D+00  0.000000D+00
     15  0.000000D+00  0.000000D+00  0.000000D+00  0.000000D+00  0.000000D+00
     16 -0.238680D-02 -0.527663D-02  0.685953D-03  0.388478D-03 -0.170012D-04
     17 -0.133084D-01 -0.176960D-01  0.230045D-02  0.130282D-02 -0.559127D-02
     18  0.700220D-02 -0.928468D-02  0.744769D-03  0.421787D-03  0.114700D-01
     19 -0.910275D-03  0.744769D-03 -0.365243D-02 -0.548316D-04 -0.169857D-02
     20 -0.515518D-03  0.421787D-03 -0.548316D-04 -0.358667D-02 -0.961958D-03
     21 -0.144813D-01  0.131024D-01 -0.170329D-02 -0.964628D-03 -0.157494D-01
     22 -0.116876D-01 -0.107482D+00  0.147440D-01  0.835003D-02  0.496614D-02
     23  0.151937D-02  0.147440D-01  0.401810D-02 -0.108549D-02 -0.110735D-02
     24  0.860470D-03  0.835003D-02 -0.108549D-02  0.532005D-02 -0.627127D-03
     25 -0.111622D-01  0.124324D-01 -0.188357D-02 -0.106673D-02 -0.272180D-01
     26 -0.131532D-01 -0.206831D-01  0.295614D-02  0.152274D-02 -0.355612D-02
     27 -0.131765D-01 -0.210938D-01  0.274216D-02  0.170440D-02 -0.319004D-02
     28 -0.456010D-03 -0.782411D-02 -0.733992D-03  0.593077D-03  0.628561D-02
     29 -0.258253D-03 -0.443105D-02  0.593077D-03 -0.144534D-02  0.355975D-02
     30  0.335725D-04  0.593077D-03  0.540382D-04  0.187891D-03 -0.528658D-03
     31  0.610371D-01 -0.719406D-01  0.119511D+00  0.182954D+00 -0.511898D-01
     32  0.106382D+00 -0.627237D-01  0.104199D+00  0.159514D+00  0.479987D-01
     33  0.610462D-01 -0.125326D+00 -0.947046D-01 -0.168110D+00 -0.545767D-02
     34  0.106390D+00 -0.109265D+00 -0.825678D-01 -0.146566D+00  0.610219D-01
     35 -0.300435D-02 -0.854236D-02  0.259854D-02  0.292089D-02 -0.465769D-04
     36 -0.107880D-01 -0.113702D-01  0.345875D-02  0.388780D-02 -0.558921D-02
     37 -0.300053D-02 -0.924063D-02 -0.265620D-03 -0.161991D-02 -0.539072D-04
     38 -0.107830D-01 -0.123161D-01 -0.354023D-03 -0.215904D-02 -0.602476D-02
     39  0.899421D-01  0.217932D-02 -0.274505D-03 -0.165970D-03 -0.523593D+00
     40  0.306696D+00  0.571249D-02 -0.719543D-03 -0.435045D-03  0.519879D+00
     41 -0.283770D-02  0.376602D+00  0.593627D-05  0.358915D-05  0.448931D-01
     42  0.357435D-03  0.593627D-05  0.376649D+00  0.000000D+00  0.117974D-02
     43  0.216110D-03  0.358915D-05  0.000000D+00  0.376649D+00  0.713283D-03
     44  0.253059D+00  0.317763D-02 -0.400253D-03 -0.241998D-03  0.226281D+00
     45 -0.317763D-02  0.421736D+00  0.422175D-05  0.255252D-05 -0.177563D-02
     46  0.400253D-03  0.422175D-05  0.421769D+00  0.000000D+00  0.629810D-03
     47  0.241998D-03  0.255252D-05  0.000000D+00  0.421769D+00  0.380792D-03
     48  0.226281D+00  0.177563D-02 -0.629810D-03 -0.380792D-03  0.173205D+01
     49  0.226269D+00  0.499991D-02 -0.223633D-03 -0.380777D-03 -0.133169D+00
     50  0.226269D+00  0.499991D-02 -0.629786D-03 -0.135211D-03 -0.133171D+00
     51 -0.265002D-05  0.351697D-03 -0.279248D-02  0.000000D+00  0.101742D-03
     52 -0.160224D-05  0.212641D-03  0.000000D+00 -0.279248D-02  0.615146D-04
     53  0.000000D+00  0.000000D+00  0.212666D-03  0.351739D-03  0.298248D-05
     54 -0.241895D-02 -0.529253D-02  0.688238D-03  0.389511D-03 -0.184946D-04
     55 -0.134154D-01 -0.174967D-01  0.227527D-02  0.128770D-02 -0.582245D-02
     56  0.694422D-02 -0.992435D-02  0.830625D-03  0.470096D-03  0.118797D-01
     57 -0.903023D-03  0.830625D-03 -0.364489D-02 -0.611311D-04 -0.176155D-02
     58 -0.511070D-03  0.470096D-03 -0.611311D-04 -0.357147D-02 -0.996955D-03
     59 -0.143994D-01  0.138420D-01 -0.180001D-02 -0.101872D-02 -0.157813D-01
     60 -0.123474D-01 -0.109133D+00  0.150095D-01  0.849468D-02  0.425177D-02
     61  0.160565D-02  0.150095D-01  0.433701D-02 -0.110464D-02 -0.998939D-03
     62  0.908723D-03  0.849468D-02 -0.110464D-02  0.566366D-02 -0.565354D-03
     63 -0.110838D-01  0.132564D-01 -0.201965D-02 -0.114303D-02 -0.280528D-01
     64 -0.132790D-01 -0.205913D-01  0.297347D-02  0.151545D-02 -0.370616D-02
     65 -0.133047D-01 -0.210136D-01  0.273261D-02  0.171393D-02 -0.332805D-02
     66 -0.502939D-03 -0.801981D-02 -0.893657D-03  0.609082D-03  0.647855D-02
     67 -0.284641D-03 -0.453885D-02  0.609082D-03 -0.162515D-02  0.366656D-02
     68  0.370146D-04  0.609082D-03  0.657701D-04  0.211334D-03 -0.545315D-03
     69  0.641300D-01 -0.717928D-01  0.122029D+00  0.187046D+00 -0.518888D-01
     70  0.109060D+00 -0.617072D-01  0.104886D+00  0.160769D+00  0.502338D-01
     71  0.641354D-01 -0.126412D+00 -0.971533D-01 -0.172094D+00 -0.285982D-02
     72  0.109064D+00 -0.108651D+00 -0.835029D-01 -0.147915D+00  0.631176D-01
     73 -0.309331D-02 -0.872402D-02  0.266855D-02  0.300995D-02 -0.506746D-04
     74 -0.109046D-01 -0.112556D-01  0.344291D-02  0.388338D-02 -0.570182D-02
     75 -0.308943D-02 -0.944520D-02 -0.288161D-03 -0.167873D-02 -0.587390D-04
     76 -0.108996D-01 -0.122025D-01 -0.372284D-03 -0.216881D-02 -0.614625D-02
               11            12            13            14            15 
     11  0.173333D+01
     12 -0.133333D+00  0.173333D+01
     13  0.000000D+00  0.000000D+00  0.280000D+01
     14  0.000000D+00  0.000000D+00  0.000000D+00  0.280000D+01
     15  0.000000D+00  0.000000D+00  0.000000D+00  0.000000D+00  0.280000D+01
     16  0.000000D+00  0.000000D+00  0.379595D-05  0.214977D-05  0.000000D+00
     17 -0.535937D-03 -0.476907D-03  0.115785D-02  0.655726D-03 -0.852433D-04
     18  0.130698D-02  0.116967D-02 -0.251356D-02 -0.142351D-02  0.198283D-03
     19  0.375836D-04 -0.152056D-03 -0.103213D-02  0.198283D-03  0.759882D-04
     20 -0.962229D-04  0.313937D-04  0.198283D-03 -0.126996D-02  0.165093D-03
     21 -0.118947D-01 -0.118497D-01  0.882853D-03  0.499989D-03 -0.649977D-04
     22  0.257210D-01  0.259218D-01  0.433993D-02  0.245784D-02 -0.290074D-03
     23 -0.288193D-02 -0.336980D-02 -0.358834D-02 -0.290074D-03  0.264182D-03
     24 -0.189364D-02 -0.164692D-02 -0.290074D-03 -0.324042D-02  0.421250D-03
     25 -0.355612D-02 -0.319004D-02  0.628561D-02  0.355975D-02 -0.528658D-03
     26 -0.447187D-03 -0.283497D-03 -0.154171D-03  0.419592D-03  0.113504D-04
     27 -0.283497D-03 -0.466740D-03  0.665698D-03 -0.129897D-03  0.168864D-04
     28 -0.154171D-03  0.665698D-03  0.419817D-02 -0.778234D-03 -0.330403D-03
     29  0.419592D-03 -0.129897D-03 -0.778234D-03  0.513160D-02 -0.713651D-03
     30  0.113504D-04  0.168864D-04 -0.330403D-03 -0.713651D-03 -0.265318D-03
     31 -0.116440D-01  0.716787D-01 -0.646618D-01 -0.989878D-01  0.164443D+00
     32  0.592567D-01  0.829772D-01 -0.184081D-01 -0.281802D-01  0.468141D-01
     33 -0.347175D-01  0.490623D-01  0.892761D-01  0.158474D+00  0.119753D+00
     34  0.526941D-01  0.765390D-01  0.254092D-01  0.451039D-01  0.340835D-01
     35 -0.693218D-05 -0.799735D-05  0.230180D-04  0.258734D-04 -0.787056D-05
     36 -0.326899D-02 -0.333133D-02  0.134713D-02  0.151424D-02 -0.460625D-03
     37 -0.291980D-05 -0.444583D-05 -0.254063D-05 -0.154943D-04  0.000000D+00
     38 -0.303100D-02 -0.312060D-02 -0.149175D-03 -0.909757D-03 -0.261508D-04
     39 -0.524695D+00 -0.524707D+00 -0.244445D-03 -0.147794D-03  0.186161D-04
     40  0.519927D+00  0.519928D+00  0.107156D-04  0.647879D-05  0.000000D+00
     41 -0.935531D-02 -0.935520D-02 -0.591644D-02 -0.357716D-02  0.000000D+00
     42 -0.565606D-02  0.117838D-02  0.469895D-01  0.000000D+00 -0.357857D-02
     43  0.712470D-03 -0.341974D-02  0.000000D+00  0.469897D-01 -0.591879D-02
     44  0.226269D+00  0.226269D+00 -0.265002D-05 -0.160224D-05  0.000000D+00
     45 -0.499991D-02 -0.499991D-02 -0.351697D-03 -0.212641D-03  0.000000D+00
     46  0.223633D-03  0.629786D-03  0.279248D-02  0.000000D+00 -0.212666D-03
     47  0.380777D-03  0.135211D-03  0.000000D+00  0.279248D-02 -0.351739D-03
     48 -0.133169D+00 -0.133171D+00  0.101742D-03  0.615146D-04  0.298248D-05
     49  0.173297D+01 -0.133348D+00  0.101765D-03 -0.236643D-04 -0.775008D-05
     50 -0.133348D+00  0.173298D+01 -0.391393D-04  0.615285D-04 -0.775010D-05
     51  0.101765D-03 -0.391393D-04  0.279852D+01 -0.929011D-05  0.737786D-04
     52 -0.236643D-04  0.615285D-04 -0.929011D-05  0.279853D+01  0.122027D-03
     53 -0.775008D-05 -0.775010D-05  0.737786D-04  0.122027D-03  0.279948D+01
     54  0.000000D+00  0.000000D+00  0.413041D-05  0.233762D-05  0.000000D+00
     55 -0.562198D-03 -0.500698D-03  0.120517D-02  0.682074D-03 -0.886966D-04
     56  0.136579D-02  0.122338D-02 -0.260298D-02 -0.147317D-02  0.205382D-03
     57  0.391027D-04 -0.159088D-03 -0.108033D-02  0.205382D-03  0.795082D-04
     58 -0.100517D-03  0.326111D-04  0.205382D-03 -0.132698D-02  0.172561D-03
     59 -0.120703D-01 -0.120270D-01  0.850224D-03  0.481188D-03 -0.625735D-04
     60  0.258784D-01  0.260911D-01  0.455528D-02  0.257808D-02 -0.306824D-03
     61 -0.291917D-02 -0.339288D-02 -0.351263D-02 -0.306824D-03  0.258518D-03
     62 -0.190456D-02 -0.166777D-02 -0.306824D-03 -0.314415D-02  0.408864D-03
     63 -0.370616D-02 -0.332805D-02  0.647855D-02  0.366656D-02 -0.545315D-03
     64 -0.470141D-03 -0.297727D-03 -0.159099D-03  0.436849D-03  0.117091D-04
     65 -0.297727D-03 -0.490339D-03  0.694276D-03 -0.133963D-03  0.174205D-04
     66 -0.159099D-03  0.694276D-03  0.437491D-02 -0.801337D-03 -0.344380D-03
     67  0.436849D-03 -0.133963D-03 -0.801337D-03  0.533730D-02 -0.742909D-03
     68  0.117091D-04  0.174205D-04 -0.344380D-03 -0.742909D-03 -0.279037D-03
     69 -0.779347D-02  0.832109D-01 -0.687189D-01 -0.105332D+00  0.179038D+00
     70  0.618189D-01  0.857283D-01 -0.180544D-01 -0.276737D-01  0.470382D-01
     71 -0.324851D-01  0.588999D-01  0.963405D-01  0.170655D+00  0.131156D+00
     72  0.553353D-01  0.793414D-01  0.253078D-01  0.448296D-01  0.344535D-01
     73 -0.762261D-05 -0.883243D-05  0.251638D-04  0.283831D-04 -0.868198D-05
     74 -0.336411D-02 -0.342980D-02  0.136639D-02  0.154120D-02 -0.471430D-03
     75 -0.321732D-05 -0.492112D-05 -0.293665D-05 -0.171080D-04  0.000000D+00
     76 -0.312168D-02 -0.321449D-02 -0.159976D-03 -0.931967D-03 -0.284331D-04
               16            17            18            19            20 
     16  0.223808D+02
     17 -0.178034D+01  0.132477D+01
     18  0.000000D+00  0.000000D+00  0.313233D+01
     19  0.000000D+00  0.000000D+00  0.000000D+00  0.313233D+01
     20  0.000000D+00  0.000000D+00  0.000000D+00  0.000000D+00  0.313233D+01
     21  0.105796D+00  0.379313D+00  0.000000D+00  0.000000D+00  0.000000D+00
     22  0.000000D+00  0.000000D+00  0.441948D+00  0.000000D+00  0.000000D+00
     23  0.000000D+00  0.000000D+00  0.000000D+00  0.441948D+00  0.000000D+00
     24  0.000000D+00  0.000000D+00  0.000000D+00  0.000000D+00  0.441948D+00
     25 -0.502744D+00  0.420094D+00  0.000000D+00  0.000000D+00  0.000000D+00
     26 -0.502744D+00  0.420094D+00  0.000000D+00  0.000000D+00  0.000000D+00
     27 -0.502744D+00  0.420094D+00  0.000000D+00  0.000000D+00  0.000000D+00
     28  0.000000D+00  0.000000D+00  0.000000D+00  0.000000D+00  0.000000D+00
     29  0.000000D+00  0.000000D+00  0.000000D+00  0.000000D+00  0.000000D+00
     30  0.000000D+00  0.000000D+00  0.000000D+00  0.000000D+00  0.000000D+00
     31  0.000000D+00 -0.866891D-05  0.227386D-04 -0.764171D-05 -0.923093D-05
     32 -0.436310D-03 -0.378648D-02  0.347934D-02 -0.116930D-02 -0.141247D-02
     33  0.000000D+00 -0.875875D-05  0.252661D-04  0.148492D-05  0.575992D-05
     34 -0.438041D-03 -0.379821D-02  0.383737D-02  0.225527D-03  0.874805D-03
     35 -0.268673D-01 -0.326848D-01  0.388633D-01 -0.447492D-01 -0.640050D-01
     36  0.150575D-01  0.814762D-01  0.422312D-01 -0.486272D-01 -0.695516D-01
     37 -0.268666D-01 -0.326896D-01  0.577600D-01  0.316611D-01  0.571698D-01
     38  0.150566D-01  0.814725D-01  0.627745D-01  0.344098D-01  0.621331D-01
     39  0.000000D+00 -0.274624D-05  0.112627D-04 -0.146430D-05  0.000000D+00
     40 -0.332218D-04 -0.280626D-02  0.540009D-02 -0.702086D-03 -0.397514D-03
     41 -0.124856D-03 -0.629800D-02  0.109056D-01 -0.154884D-02 -0.876937D-03
     42  0.162331D-04  0.818827D-03 -0.154884D-02 -0.805873D-03  0.114014D-03
     43  0.919101D-05  0.463612D-03 -0.876937D-03  0.114014D-03 -0.942690D-03
     44 -0.242751D-02 -0.134437D-01  0.692819D-02 -0.900761D-03 -0.510002D-03
     45 -0.529648D-02 -0.174421D-01 -0.100964D-01  0.853519D-03  0.483254D-03
     46  0.688616D-03  0.226771D-02  0.853519D-03 -0.364251D-02 -0.628298D-04
     47  0.389888D-03  0.128396D-02  0.483254D-03 -0.628298D-04 -0.356711D-02
     48 -0.189117D-04 -0.588521D-02  0.119905D-01 -0.177809D-02 -0.100673D-02
     49  0.000000D+00 -0.569315D-03  0.138168D-02  0.395179D-04 -0.101709D-03
     50  0.000000D+00 -0.507213D-03  0.123805D-02 -0.160964D-03  0.329474D-04
     51  0.422266D-05  0.121767D-02 -0.262640D-02 -0.109366D-02  0.207308D-03
     52  0.239083D-05  0.689435D-03 -0.148704D-02  0.207308D-03 -0.134243D-02
     53  0.000000D+00 -0.896361D-04  0.207308D-03  0.805069D-04  0.174534D-03
     54  0.222070D+02 -0.177530D+01 -0.221976D+00  0.258442D-01  0.182329D-01
     55 -0.177530D+01  0.132405D+01  0.104175D-01 -0.121288D-02 -0.855681D-03
     56  0.221976D+00 -0.104175D-01  0.312938D+01  0.227110D-03  0.160224D-03
     57 -0.258442D-01  0.121288D-02  0.227110D-03  0.313130D+01 -0.186546D-04
     58 -0.182329D-01  0.855681D-03  0.160224D-03 -0.186546D-04  0.313132D+01
     59  0.105788D+00  0.379291D+00 -0.295177D-02  0.343669D-03  0.242456D-03
     60  0.227994D-02  0.646389D-02  0.441881D+00  0.517823D-05  0.365321D-05
     61 -0.265448D-03 -0.752576D-03  0.517823D-05  0.441925D+00  0.000000D+00
     62 -0.187272D-03 -0.530938D-03  0.365321D-05  0.000000D+00  0.441925D+00
     63 -0.502032D+00  0.420107D+00  0.466931D-01  0.678838D-03  0.478916D-03
     64 -0.502667D+00  0.420014D+00 -0.582363D-02 -0.543719D-02  0.478348D-03
     65 -0.502672D+00  0.420013D+00 -0.582358D-02  0.678027D-03 -0.383591D-02
     66 -0.129918D-03 -0.191008D-04 -0.529452D-02  0.454867D-01  0.000000D+00
     67 -0.916565D-04 -0.134755D-04 -0.373525D-02  0.000000D+00  0.454868D-01
     68  0.106714D-04  0.156892D-05  0.000000D+00 -0.373624D-02 -0.529593D-02
     69  0.000000D+00 -0.996660D-05  0.259938D-04 -0.870519D-05 -0.105037D-04
     70 -0.460299D-03 -0.394790D-02  0.359507D-02 -0.120397D-02 -0.145272D-02
[...]
     53   0.121116D+01 -0.398104D+00 -0.663805D+01 -0.427721D+00  0.219929D-01
     54  -0.939749D+00 -0.620800D+01  0.552715D+01  0.209887D+00  0.690889D-02
     55  -0.294484D+01 -0.287965D+02  0.354399D+02  0.148287D+01  0.169662D-01
     56   0.847509D+02  0.246506D+02  0.123919D+02 -0.460633D+01  0.155365D+02
     57  -0.970761D+01 -0.225281D+01  0.444791D+01 -0.914769D+02  0.629717D+02
     58  -0.689159D+01 -0.244980D+01 -0.478756D+01  0.583822D+02  0.999227D+02
     59  -0.222432D+00 -0.197326D+00  0.270124D+00  0.198147D-01  0.103658D-03
     60  -0.411589D+01  0.184843D+02  0.283518D+02  0.472734D+01 -0.793168D+00
     61   0.242380D+00 -0.326453D+01 -0.602948D+01  0.249144D+02 -0.301620D+01
     62   0.307036D+00 -0.740657D+00 -0.627819D+00 -0.163308D+02 -0.477592D+01
     63  -0.497705D+01 -0.382939D+01  0.275838D+02  0.145730D+01 -0.534655D+00
     64  -0.299848D+02  0.126579D+01  0.317816D+02  0.145255D+01  0.590536D+00
     65   0.267624D+02 -0.701827D+02  0.259897D+02  0.716489D+00 -0.100168D+00
     66  -0.141776D+01 -0.199357D+01 -0.964171D-01 -0.215733D+00 -0.905322D+00
     67   0.344489D+01 -0.777341D+01 -0.520909D+00  0.226853D-01 -0.155196D+01
     68   0.934411D+01 -0.270620D+02 -0.409530D+01 -0.581304D+00  0.407992D+00
     69   0.814412D+00 -0.121488D+00 -0.420545D+01 -0.266649D+00 -0.807883D-01
     70  -0.165862D+01  0.293455D+01  0.227540D+02  0.163187D+01  0.612499D+00
     71   0.830393D+00 -0.123152D+00 -0.421092D+01 -0.261393D+00  0.895191D-01
     72  -0.170108D+01  0.290888D+01  0.227342D+02  0.168322D+01 -0.639949D+00
     73   0.294311D+01 -0.893016D+01 -0.477374D+01 -0.145270D+00 -0.474967D+00
     74   0.136632D+01  0.337842D+02  0.243311D+02  0.134044D+01 -0.736019D-02
     75   0.254449D+01 -0.902424D+01 -0.472473D+01 -0.236242D+00  0.508898D+00
     76   0.120912D+01  0.339855D+02  0.242689D+02  0.176656D+01 -0.146303D+00
                61            62            63            64            65 
      1   0.107859D+01  0.131806D-01  0.383993D-02  0.440674D-03 -0.277924D-01
      2   0.265783D+01  0.127766D+00  0.254253D-01 -0.231019D-02 -0.272188D+00
      3  -0.100919D+03  0.360120D+01 -0.135861D+02  0.141375D+02  0.896303D+01
      4   0.125874D+02  0.431478D+02 -0.521911D+02  0.599339D+02  0.118785D+03
      5   0.777943D+01 -0.269074D+02 -0.917797D+02  0.868685D+02 -0.762490D+02
      6  -0.424887D+00  0.209576D-01  0.299042D-03 -0.153534D-02 -0.357526D-01
      7   0.273589D+02  0.645952D+01 -0.263882D+01 -0.663466D+00 -0.177465D+01
      8  -0.379725D+01  0.851052D+02 -0.107104D+02 -0.336804D+01 -0.380029D+02
      9  -0.181062D+01 -0.529730D+02 -0.179498D+02 -0.468588D+01  0.245111D+02
     10  -0.517072D+01  0.132246D+00 -0.488262D+00 -0.367588D-01 -0.939608D-02
     11   0.145580D+00  0.204064D+00  0.255022D+00  0.141581D-01 -0.549763D+00
     12   0.568327D+01 -0.165282D-01  0.269003D+00  0.693807D-02  0.335909D-01
     13   0.116998D+01 -0.801546D-01 -0.105289D+01 -0.118593D-01  0.123731D+01
     14   0.154006D+01  0.628637D-02 -0.180730D+01 -0.123878D+00 -0.675441D+00
     15   0.517395D+01 -0.174658D+00  0.315025D+00  0.357388D-01  0.209954D+00
     16  -0.392798D+01 -0.114807D+00 -0.572722D-02  0.143607D-02  0.144445D+00
     17  -0.260629D+02 -0.790317D+00 -0.396544D-01  0.251672D-01  0.115395D+01
     18  -0.424512D+01  0.283794D+01 -0.249793D+00 -0.160820D+00 -0.918903D+00
     19   0.196447D+01  0.349619D+02 -0.102981D+01 -0.828828D+00 -0.101312D+02
     20  -0.791533D+00 -0.223714D+02 -0.145442D+01 -0.593185D+00  0.660619D+01
     21   0.106095D+00 -0.539699D-02 -0.526141D-03  0.250721D-04  0.103244D-01
     22  -0.183896D+02  0.621976D+01 -0.409554D+01 -0.343205D+01 -0.402203D+01
     23   0.264084D+01  0.479304D+02 -0.164184D+02 -0.141278D+02 -0.308712D+02
     24   0.121176D+01 -0.304128D+02 -0.255712D+02 -0.203046D+02  0.219510D+02
     25  -0.156964D+02  0.501783D-01  0.117053D+00  0.416526D+00  0.279467D+00
     26  -0.226084D+02 -0.927942D+00  0.185361D+00  0.290027D-01  0.463891D+00
     27  -0.184444D+02 -0.358639D+00 -0.328650D+00 -0.365137D+00  0.450596D+00
     28  -0.481953D+00  0.137024D+01  0.291667D+00  0.838202D+00 -0.834869D-01
     29   0.224834D+00 -0.901465D+00  0.400720D+00  0.132207D+01 -0.335477D-01
     30   0.354273D+01 -0.409566D-01  0.449420D-01 -0.152813D+00 -0.588042D-02
     31   0.326153D+01 -0.955921D-01  0.978615D+00 -0.184711D+01  0.167685D+00
     32  -0.159337D+02  0.837465D+00 -0.427536D+00 -0.244298D+01 -0.135647D+01
     33   0.327409D+01 -0.129569D+00 -0.969826D+00  0.186039D+01  0.572033D-01
     34  -0.159459D+02  0.131981D+01  0.460518D+00  0.232328D+01 -0.177307D+01
     35   0.313282D+01  0.133465D+00 -0.666058D+01 -0.715034D+01  0.366038D+00
     36  -0.213015D+02 -0.157572D+01  0.698487D+02  0.737195D+02 -0.324257D+01
     37   0.306776D+01 -0.105940D+00  0.666499D+01  0.714200D+01 -0.446800D+00
     38  -0.212372D+02  0.578024D+00 -0.698797D+02 -0.735845D+02  0.541168D+01
     39   0.512762D+00 -0.173158D-01 -0.359008D-02 -0.625184D-04  0.314254D-01
     40   0.496377D+00 -0.133629D+00 -0.252379D-01  0.278466D-02  0.276300D+00
     41   0.101054D+03 -0.360467D+01  0.136052D+02 -0.141321D+02 -0.895818D+01
     42  -0.126042D+02 -0.431485D+02  0.522656D+02 -0.599139D+02 -0.118781D+03
     43  -0.778753D+01  0.269097D+02  0.919002D+02 -0.868379D+02  0.762390D+02
     44  -0.424734D+00  0.209990D-01  0.302560D-03 -0.154012D-02 -0.358490D-01
     45  -0.272590D+02 -0.644923D+01  0.257342D+01  0.628990D+00  0.175562D+01
     46   0.378538D+01 -0.850669D+02  0.104439D+02  0.323190D+01  0.379790D+02
     47   0.180067D+01  0.529367D+02  0.175172D+02  0.446972D+01 -0.244587D+02
     48   0.234985D+01 -0.198863D-02  0.114167D+00  0.425377D+00  0.243641D+00
     49  -0.474778D+00 -0.411467D+00 -0.743417D-01 -0.221282D+00  0.168014D+00
     50  -0.593758D+01  0.915891D-01 -0.766199D-01 -0.189277D+00  0.116782D+00
     51  -0.800775D+00  0.101314D+01  0.250181D+00  0.932955D+00  0.499996D+00
     52  -0.130323D+01 -0.599763D+00  0.364545D+00  0.148676D+01 -0.463473D+00
     53  -0.514504D+01  0.176145D+00 -0.678920D-01 -0.281616D+00 -0.200880D+00
     54   0.382780D+01  0.128360D+00  0.552769D-02 -0.183605D-02 -0.152584D+00
     55   0.258597D+02  0.815944D+00  0.392616D-01 -0.259304D-01 -0.117103D+01
     56   0.427251D+01 -0.283379D+01  0.282071D+00  0.193135D+00  0.915458D+00
     57  -0.196025D+01 -0.349951D+02  0.115758D+01  0.954357D+00  0.101359D+02
     58   0.787418D+00  0.223866D+02  0.166140D+01  0.796474D+00 -0.662569D+01
     59   0.103122D+00 -0.549356D-02 -0.528197D-03  0.356763D-04  0.104811D-01
     60   0.192612D+02 -0.617913D+01  0.393401D+01  0.327719D+01  0.398349D+01
     61  -0.276049D+01 -0.477479D+02  0.157678D+02  0.135184D+02  0.308597D+02
     62  -0.127238D+01  0.303223D+02  0.245231D+02  0.193230D+02 -0.218551D+02
     63   0.158334D+02 -0.145866D+00 -0.103243D+00 -0.406312D+00 -0.243974D+00
     64   0.225065D+02  0.108447D+01 -0.195536D+00 -0.392119D-01 -0.529662D+00
     65   0.183454D+02  0.310302D+00  0.325184D+00  0.364510D+00 -0.439136D+00
     66   0.426592D+00 -0.205515D+01 -0.260457D+00 -0.810786D+00  0.339557D+00
     67  -0.227212D+00  0.135040D+01 -0.353811D+00 -0.129488D+01 -0.139357D+00
     68  -0.352499D+01  0.437156D-01 -0.550109D-01  0.145136D+00  0.590869D-02
     69  -0.341773D+01  0.994386D-01 -0.893949D+00  0.185743D+01 -0.176761D+00
     70   0.162487D+02 -0.846974D+00  0.724312D+00  0.258778D+01  0.136524D+01
     71  -0.342985D+01  0.133777D+00  0.884707D+00 -0.187172D+01 -0.607919D-01
     72   0.162593D+02 -0.134457D+01 -0.757043D+00 -0.246564D+01  0.181750D+01
     73  -0.318051D+01 -0.123639D+00  0.642566D+01  0.694163D+01 -0.354435D+00
     74   0.212099D+02  0.157998D+01 -0.702976D+02 -0.741245D+02  0.327142D+01
     75  -0.311730D+01  0.104884D+00 -0.643002D+01 -0.693287D+01  0.433487D+00
     76   0.211466D+02 -0.592210D+00  0.703294D+02  0.739905D+02 -0.543193D+01
                66            67            68            69            70 
      1  -0.172734D+01 -0.376814D+00 -0.140171D+00  0.155752D+01 -0.477983D-01
      2  -0.172444D+02 -0.492447D+01 -0.120331D+01  0.149869D+02 -0.472814D+00
      3  -0.528004D+01  0.377167D+01 -0.211923D+01  0.427541D+01 -0.232340D+01
      4  -0.165573D+01 -0.307898D+00 -0.106127D+02 -0.334900D+01 -0.908492D+01
      5   0.167598D+01 -0.416281D+00  0.580542D+01  0.102168D+01 -0.153165D+02
      6  -0.198381D+01 -0.177701D+01  0.267514D+00 -0.777640D+00  0.526220D-02
      7   0.609939D+02 -0.783129D+02  0.343274D+02 -0.109932D+03  0.281984D+02
      8  -0.248545D+01  0.838953D+01  0.964923D+02  0.433729D+02  0.108972D+03
      9  -0.765939D+01  0.689590D+01 -0.574493D+02 -0.676078D+01  0.184498D+03
     10  -0.796075D+01 -0.245279D+01  0.782572D+00 -0.329376D+01  0.164983D+01
     11  -0.129841D+02 -0.261898D+01 -0.523347D+00  0.289157D+00 -0.704910D+00
     12  -0.458555D+01  0.687704D+00 -0.394002D+00  0.980957D+00 -0.674726D+00
     13  -0.193109D-01  0.232063D+00  0.115069D+01  0.100389D+01  0.339785D+01
     14   0.137594D+01  0.704528D+00 -0.104587D+01  0.145249D+00  0.578939D+01
     15   0.891530D+01  0.353060D+01 -0.265691D+00  0.496792D+00 -0.996611D+00
     16   0.912540D+01 -0.148429D+02 -0.389955D+01  0.116227D+02 -0.309316D-01
     17   0.757758D+02 -0.121877D+03 -0.311261D+02  0.913644D+02 -0.224668D+00
     18  -0.151785D+01  0.318961D+01 -0.246036D+01  0.247520D+01  0.615393D+00
     19  -0.106204D+00 -0.760298D-02 -0.192082D+02 -0.596270D+01  0.290053D+01
     20   0.328562D+00 -0.472323D+00  0.128420D+02  0.349148D+01  0.334197D+01
     21   0.500034D+00 -0.853598D-01  0.347210D-01 -0.202973D+00  0.112856D-02
     22  -0.108201D+02  0.392759D+02 -0.333586D+02  0.605864D+02  0.963549D+01
     23  -0.542528D-01 -0.231001D+01 -0.140485D+03 -0.516005D+02  0.425737D+02
     24   0.189270D+01 -0.453429D+01  0.985705D+02  0.248844D+02  0.568463D+02
     25   0.118184D+02  0.349727D+02  0.140593D+02 -0.500067D+02  0.991273D+00
     26   0.154094D+02  0.503301D+02  0.177778D+02 -0.669790D+02 -0.392892D+00
     27   0.987464D+01  0.530530D+02  0.189752D+02 -0.658747D+02  0.712553D-01
     28   0.106673D+00  0.218802D+01  0.277416D+01 -0.149882D+01  0.168266D+01
     29  -0.100600D+01  0.203008D+01 -0.656719D+00 -0.157034D+01  0.296888D+01
     30  -0.616767D+01  0.277091D+01  0.441525D+00  0.143708D+01 -0.667232D+00
     31   0.415889D+01  0.170249D+01 -0.130644D+00  0.719598D+00  0.769941D+00
     32  -0.782015D+02 -0.820276D+02  0.119176D+02 -0.521748D+02  0.403265D+02
     33   0.414149D+01  0.170038D+01 -0.372414D+00  0.646051D+00 -0.775765D+00
     34  -0.776456D+02 -0.815391D+02  0.179579D+02 -0.500025D+02 -0.398307D+02
     35  -0.143535D+01 -0.177303D+01  0.411944D+00 -0.210018D+01 -0.279014D+01
     36   0.533713D+02 -0.159804D+01  0.122856D+02 -0.486769D+02  0.342341D+02
     37  -0.141454D+01 -0.171962D+01  0.626720D+00 -0.204740D+01  0.280209D+01
     38   0.533303D+02 -0.174734D+01  0.107244D+02 -0.495954D+02 -0.337541D+02
     39   0.185554D+01  0.485715D+00  0.122003D+00 -0.149240D+01  0.473657D-01
     40   0.173973D+02  0.539991D+01  0.110670D+01 -0.146088D+02  0.470885D+00
     41   0.550828D+01 -0.367239D+01  0.210422D+01 -0.416305D+01  0.223795D+01
     42   0.162601D+01  0.291360D+00  0.106887D+02  0.335429D+01  0.875760D+01
     43  -0.169102D+01  0.412724D+00 -0.585506D+01 -0.104449D+01  0.147867D+02
     44  -0.198957D+01 -0.177712D+01  0.266864D+00 -0.773878D+00  0.522889D-02
     45  -0.622036D+02  0.781166D+02 -0.344390D+02  0.110505D+03 -0.276899D+02
     46   0.264148D+01 -0.834984D+01 -0.967646D+02 -0.435208D+02 -0.106906D+03
     47   0.773785D+01 -0.690074D+01  0.576164D+02  0.676125D+01 -0.181141D+03
     48   0.808628D+01  0.265866D+01 -0.826445D+00  0.344810D+01 -0.165960D+01
     49   0.130832D+02  0.303875D+01  0.421040D+00  0.466983D-01  0.707105D+00
     50   0.467964D+01 -0.363938D+00  0.327096D+00 -0.727746D+00  0.679288D+00
     51  -0.836814D-02 -0.210038D+00 -0.111339D+01 -0.968329D+00 -0.342025D+01
     52  -0.136637D+01 -0.708468D+00  0.101552D+01 -0.161162D+00 -0.582101D+01
     53  -0.891517D+01 -0.364762D+01  0.293296D+00 -0.602598D+00  0.100216D+01
     54  -0.922470D+01  0.149331D+02  0.384506D+01 -0.114719D+02  0.308046D-01
     55  -0.759810D+02  0.122082D+03  0.309851D+02 -0.909733D+02  0.224407D+00
     56   0.133009D+01 -0.191148D+01  0.288219D+01 -0.393423D+01 -0.612980D+00
     57   0.113643D+00 -0.141679D+00  0.190990D+02  0.612907D+01 -0.291279D+01
     58  -0.304933D+00  0.365090D+00 -0.128451D+02 -0.336861D+01 -0.336388D+01
     59   0.508571D+00 -0.840758D-01  0.365036D-01 -0.211605D+00  0.117514D-02
     60   0.848713D+01 -0.396870D+02  0.328205D+02 -0.580686D+02 -0.959985D+01
     61   0.395142D+00  0.234986D+01  0.140819D+03  0.513268D+02 -0.423826D+02
     62  -0.174121D+01  0.457509D+01 -0.986494D+02 -0.250896D+02 -0.565311D+02
     63  -0.119008D+02 -0.350470D+02 -0.139455D+02  0.499595D+02 -0.103175D+01
     64  -0.156591D+02 -0.501618D+02 -0.180187D+02  0.672531D+02  0.409924D+00
     65  -0.101248D+02 -0.528863D+02 -0.189998D+02  0.661558D+02 -0.489286D-01
     66  -0.121331D+00 -0.216733D+01 -0.212360D+01  0.174402D+01 -0.178991D+01
     67   0.983415D+00 -0.199987D+01  0.199653D+00  0.146113D+01 -0.309407D+01
     68   0.616519D+01 -0.277248D+01 -0.422447D+00 -0.150629D+01  0.688634D+00
     69  -0.445399D+01 -0.175745D+01  0.107711D+00 -0.663785D+00 -0.111560D+01
     70   0.795805D+02  0.834300D+02 -0.121369D+02  0.530020D+02 -0.432938D+02
     71  -0.443543D+01 -0.175421D+01  0.380142D+00 -0.577510D+00  0.112055D+01
     72   0.790090D+02  0.829270D+02 -0.182309D+02  0.508153D+02  0.427863D+02
     73   0.159552D+01  0.170064D+01 -0.433368D+00  0.214595D+01  0.298652D+01
     74  -0.532363D+02  0.162010D+01 -0.121565D+02  0.482772D+02 -0.339660D+02
     75   0.157369D+01  0.164730D+01 -0.674352D+00  0.208287D+01 -0.299744D+01
     76  -0.531976D+02  0.176735D+01 -0.106400D+02  0.491814D+02  0.334889D+02
                71            72            73            74 
      1  -0.102751D+00  0.219219D+02 -0.128000D+01  0.773626D-02
      2  -0.103588D+01  0.222448D+03 -0.132296D+02  0.795203D-01
      3   0.937371D+00  0.137988D+01 -0.159369D+01  0.268305D+00
      4   0.353371D+01 -0.963045D-01  0.215523D+00  0.102581D+01
      5   0.643083D+01 -0.136510D+00  0.130505D+00  0.169842D+01
      6  -0.914294D-02 -0.122507D+00  0.962833D+00 -0.933208D-02
      7  -0.351988D+01  0.323593D+01 -0.190373D+03 -0.207527D+02
      8  -0.959740D+01 -0.140076D+01  0.240820D+02 -0.886409D+02
      9  -0.247359D+02  0.590125D+00  0.131509D+02 -0.143790D+03
     10   0.236990D+01 -0.550267D+02  0.980222D+01 -0.120833D+00
     11  -0.919638D+00 -0.676574D+02  0.264528D+02 -0.112585D+00
     12  -0.649959D+00 -0.694573D+02  0.243339D+02 -0.160577D+00
     13   0.481008D+01 -0.196966D+01  0.229861D+01 -0.151355D+00
     14   0.786668D+01 -0.142736D+01  0.898606D+00 -0.202606D+00
     15  -0.140203D+01 -0.171700D+01 -0.279770D+01  0.623051D-01
     16   0.876822D-02 -0.479851D+00  0.103087D+01 -0.460229D-02
     17   0.500884D-01 -0.314293D+01  0.629234D+01 -0.196780D-01
     18  -0.829695D+00 -0.144709D+01 -0.118748D+02  0.213307D+01
     19  -0.372958D+01  0.471914D+00  0.222631D+01  0.830832D+01
     20  -0.474158D+01 -0.981027D-01  0.566710D+00  0.132240D+02
     21  -0.196143D-03  0.503998D-01 -0.140808D+01  0.104202D-01
     22  -0.114935D+02 -0.193895D+02 -0.325376D+03  0.495868D+02
     23  -0.497129D+02  0.490032D+01  0.530161D+02  0.191182D+03
     24  -0.681918D+02 -0.422747D+00  0.199300D+02  0.304024D+03
     25  -0.124690D+01  0.349830D+01 -0.158833D+02  0.159824D+01
     26   0.808035D+00  0.533914D+01 -0.269618D+02 -0.130431D+01
     27   0.199961D+00  0.509112D+01 -0.270940D+02  0.928668D-01
     28  -0.246073D+01  0.198688D+00 -0.174069D+01  0.332593D+01
     29  -0.432216D+01  0.918986D-01 -0.892531D+00  0.553907D+01
     30   0.936354D+00 -0.343784D+00 -0.481830D-01 -0.132253D+01
     31  -0.198672D+01 -0.167249D+01  0.108832D+01  0.246692D+01
     32   0.158268D+03 -0.466472D+01 -0.134542D+02  0.846190D+02
     33   0.202014D+01 -0.165243D+01  0.107022D+01 -0.248963D+01
     34  -0.159380D+03 -0.633947D+01 -0.141891D+02 -0.846597D+02
     35   0.845503D+00  0.623617D+00  0.445678D+01  0.224532D+01
     36  -0.154010D+02  0.101288D+02  0.686306D+02  0.549463D+02
     37  -0.863869D+00  0.625838D+00  0.443168D+01 -0.230600D+01
     38   0.152610D+02  0.101939D+02  0.680598D+02 -0.558320D+02
     39   0.103438D+00 -0.219287D+02  0.138126D+01 -0.827400D-02
     40   0.103814D+01 -0.222412D+03  0.136342D+02 -0.817282D-01
     41  -0.100900D+01  0.486284D+00  0.119726D+01 -0.280438D+00
     42  -0.378559D+01 -0.142551D+00 -0.166711D+00 -0.108648D+01
     43  -0.684327D+01 -0.819856D-02 -0.996054D-01 -0.179190D+01
     44  -0.913713D-02 -0.123300D+00  0.982534D+00 -0.946567D-02
     45   0.414631D+01 -0.357946D+01  0.193027D+03  0.210254D+02
     46   0.121003D+02  0.146524D+01 -0.244139D+02  0.898113D+02
     47   0.288304D+02 -0.541496D+00 -0.133448D+02  0.145679D+03
     48  -0.237610D+01  0.550487D+02 -0.987220D+01  0.609035D-01
     49   0.920686D+00  0.676413D+02 -0.262972D+02  0.139052D+00
     50   0.659646D+00  0.693947D+02 -0.242272D+02  0.193288D+00
     51  -0.482497D+01  0.195867D+01 -0.227088D+01  0.144600D-01
     52  -0.789739D+01  0.141389D+01 -0.891530D+00 -0.226601D-01
     53   0.140412D+01  0.166507D+01  0.273700D+01 -0.247713D-01
     54  -0.891636D-02  0.429148D+00 -0.136735D+01  0.684376D-02
     55  -0.505356D-01  0.301220D+01 -0.728879D+01  0.264161D-01
     56   0.833691D+00  0.154639D+01  0.114562D+02 -0.212850D+01
     57   0.375518D+01 -0.484701D+00 -0.218553D+01 -0.830165D+01
     58   0.478536D+01  0.907161D-01 -0.527213D+00 -0.132098D+02
     59  -0.217625D-03  0.515918D-01 -0.141678D+01  0.104733D-01
     60   0.114073D+02  0.190191D+02  0.326915D+03 -0.494881D+02
     61   0.493469D+02 -0.485087D+01 -0.531645D+02 -0.190738D+03
     62   0.675920D+02  0.446041D+00 -0.200684D+02 -0.303338D+03
     63   0.130105D+01 -0.345042D+01  0.165435D+02 -0.176461D+01
     64  -0.833120D+00 -0.542690D+01  0.264669D+02  0.136715D+01
     65  -0.229274D+00 -0.517224D+01  0.266843D+02  0.123555D-01
     66   0.259831D+01 -0.227633D+00  0.155586D+01 -0.369492D+01
     67   0.449902D+01 -0.945293D-01  0.822583D+00 -0.613124D+01
     68  -0.966939D+00  0.358159D+00  0.183575D+00  0.141343D+01
     69   0.222158D+01  0.175885D+01 -0.915450D+00 -0.222973D+01
     70  -0.162383D+03  0.467308D+01  0.136181D+02 -0.862386D+02
     71  -0.225612D+01  0.173716D+01 -0.899967D+00  0.225083D+01
     72   0.163512D+03  0.639747D+01  0.143637D+02  0.862819D+02
     73  -0.108926D+01 -0.622775D+00 -0.450081D+01 -0.161844D+01
     74   0.149497D+02 -0.100748D+02 -0.683878D+02 -0.537920D+02
     75   0.110703D+01 -0.623141D+00 -0.448356D+01  0.167930D+01
     76  -0.148119D+02 -0.101364D+02 -0.678317D+02  0.546731D+02
 NBasis=    76 RedAO= T  NBF=    76
 NBsUse=    74 1.00D-06 NBFU=    74
 Harris functional with IExCor=  205 diagonalized for initial guess.
 ExpMin= 1.61D-01 ExpMax= 4.17D+03 ExpMxC= 6.27D+02 IAcc=1 IRadAn=         1 AccDes= 0.00D+00
 HarFok:  IExCor=  205 AccDes= 0.00D+00 IRadAn=         1 IDoV= 1
 ScaDFX=  1.000000  1.000000  1.000000  1.000000
 Spurious integrated density or basis function:
 NE=   34 NElCor=    0 El error=3.05D-01 rel=8.97D-03 Tolerance=1.00D-03
 Shell    17     absolute error=3.83D-02              Tolerance=1.20D-02
 Shell    17       signed error=3.83D-02              Tolerance=1.00D-01
 Inaccurate quadrature in CalDSu.
 Error termination via Lnk1e in /opt//g09/l401.exe at Mon Jan  6 17:24:07 2014.
 Job cpu time:  0 days  0 hours  0 minutes  0.8 seconds.
 File lengths (MBytes):  RWF=      5 Int=      0 D2E=      0 Chk=      1 Scr=      1
