 Entering Gaussian System, Link 0=g09
 Input=gaussian.gjf
 Output=gaussian.log
 Initial command:
 /opt//g09/l1.exe /tmp/Gau-8340.inp -scrdir=/tmp/
 Entering Link 1 = /opt//g09/l1.exe PID=      8342.
  
 Copyright (c) 1988,1990,1992,1993,1995,1998,2003,2009, Gaussian, Inc.
                  All Rights Reserved.
  
 This is part of the Gaussian(R) 09 program.  It is based on
 the Gaussian(R) 03 system (copyright 2003, Gaussian, Inc.),
 the Gaussian(R) 98 system (copyright 1998, Gaussian, Inc.),
 the Gaussian(R) 94 system (copyright 1995, Gaussian, Inc.),
 the Gaussian 92(TM) system (copyright 1992, Gaussian, Inc.),
 the Gaussian 90(TM) system (copyright 1990, Gaussian, Inc.),
 the Gaussian 88(TM) system (copyright 1988, Gaussian, Inc.),
 the Gaussian 86(TM) system (copyright 1986, Carnegie Mellon
 University), and the Gaussian 82(TM) system (copyright 1983,
 Carnegie Mellon University). Gaussian is a federally registered
 trademark of Gaussian, Inc.
  
 This software contains proprietary and confidential information,
 including trade secrets, belonging to Gaussian, Inc.
  
 This software is provided under written license and may be
 used, copied, transmitted, or stored only in accord with that
 written license.
  
 The following legend is applicable only to US Government
 contracts under FAR:
  
                    RESTRICTED RIGHTS LEGEND
  
 Use, reproduction and disclosure by the US Government is
 subject to restrictions as set forth in subparagraphs (a)
 and (c) of the Commercial Computer Software - Restricted
 Rights clause in FAR 52.227-19.
  
 Gaussian, Inc.
 340 Quinnipiac St., Bldg. 40, Wallingford CT 06492
  
  
 ---------------------------------------------------------------
 Warning -- This program may not be used in any manner that
 competes with the business of Gaussian, Inc. or will provide
 assistance to any competitor of Gaussian, Inc.  The licensee
 of this program is prohibited from giving any competitor of
 Gaussian, Inc. access to this program.  By using this program,
 the user acknowledges that Gaussian, Inc. is engaged in the
 business of creating and licensing software in the field of
 computational chemistry and represents and warrants to the
 licensee that it is not a competitor of Gaussian, Inc. and that
 it will not use this program in any manner prohibited above.
 ---------------------------------------------------------------
  

 Cite this work as:
 Gaussian 09, Revision A.01,
 M. J. Frisch, G. W. Trucks, H. B. Schlegel, G. E. Scuseria, 
 M. A. Robb, J. R. Cheeseman, G. Scalmani, V. Barone, B. Mennucci, 
 G. A. Petersson, H. Nakatsuji, M. Caricato, X. Li, H. P. Hratchian, 
 A. F. Izmaylov, J. Bloino, G. Zheng, J. L. Sonnenberg, M. Hada, 
 M. Ehara, K. Toyota, R. Fukuda, J. Hasegawa, M. Ishida, T. Nakajima, 
 Y. Honda, O. Kitao, H. Nakai, T. Vreven, J. A. Montgomery, Jr., 
 J. E. Peralta, F. Ogliaro, M. Bearpark, J. J. Heyd, E. Brothers, 
 K. N. Kudin, V. N. Staroverov, R. Kobayashi, J. Normand, 
 K. Raghavachari, A. Rendell, J. C. Burant, S. S. Iyengar, J. Tomasi, 
 M. Cossi, N. Rega, J. M. Millam, M. Klene, J. E. Knox, J. B. Cross, 
 V. Bakken, C. Adamo, J. Jaramillo, R. Gomperts, R. E. Stratmann, 
 O. Yazyev, A. J. Austin, R. Cammi, C. Pomelli, J. W. Ochterski, 
 R. L. Martin, K. Morokuma, V. G. Zakrzewski, G. A. Voth, 
 P. Salvador, J. J. Dannenberg, S. Dapprich, A. D. Daniels, 
 O. Farkas, J. B. Foresman, J. V. Ortiz, J. Cioslowski, 
 and D. J. Fox, Gaussian, Inc., Wallingford CT, 2009.
 
 ******************************************
 Gaussian 09:  EM64L-G09RevA.01  8-May-2009
                 6-Jan-2014 
 ******************************************
 %chk=gaussian.chk
 %mem=1GB
 %nproc=2
 Will use up to    2 processors via shared memory.
 ----------------------------------------------------------------------
 # force td(singlet, root=1, nstates=2) lc-blyp/6-31g* scf=(tight,maxcy
 cle=10000) iop(9/40=20) nosymm pop=full
 ----------------------------------------------------------------------
 1/10=7,30=1,38=1/1,3;
 2/12=2,15=1,17=6,18=5,40=1/2;
 3/5=1,6=6,7=1,11=2,16=1,25=1,30=1,71=1,74=1000402/1,2,8,3;
 4//1;
 5/5=2,7=10000,32=2,38=5/2;
 8/6=1,10=2,107=1,108=2/1;
 9/8=1,15=2,40=20,41=2,42=1,48=1/14;
 10/5=4,31=1/2;
 6/7=3,18=1/1;
 7/12=6,13=5,14=1,29=1,30=1/1,2,3,16;
 1/10=7,30=1/3;
 99//99;
 -------
 [0] [0]
 -------
 Symbolic Z-matrix:
 Charge =  1 Multiplicity = 1
 c                    -3.18105   0.4112    0.23267 
 n                    -0.6264    0.07922   0.04451 
 h                    -3.57914   1.07261   1.24512 
 h                    -3.87447  -0.11268  -0.69769 
 h                    -0.09799  -0.51906  -0.80851 
 h                     0.15392   0.49915   0.80584 
 

 GradGradGradGradGradGradGradGradGradGradGradGradGradGradGradGradGradGrad
 Berny optimization.
 Initialization pass.
 Trust Radius=3.00D-01 FncErr=1.00D-07 GrdErr=1.00D-07
 Number of steps in this run=   2 maximum allowed number of steps=   2.
 GradGradGradGradGradGradGradGradGradGradGradGradGradGradGradGradGradGrad

                          Input orientation:                          
 ---------------------------------------------------------------------
 Center     Atomic      Atomic             Coordinates (Angstroms)
 Number     Number       Type             X           Y           Z
 ---------------------------------------------------------------------
      1          6           0       -3.181051    0.411195    0.232674
      2          7           0       -0.626399    0.079223    0.044514
      3          1           0       -3.579139    1.072612    1.245125
      4          1           0       -3.874473   -0.112678   -0.697691
      5          1           0       -0.097988   -0.519058   -0.808512
      6          1           0        0.153918    0.499154    0.805842
 ---------------------------------------------------------------------
                    Distance matrix (angstroms):
                    1          2          3          4          5
     1  C    0.000000
     2  N    2.582993   0.000000
     3  H    1.273186   3.338706   0.000000
     4  H    1.273128   3.337315   2.294922   0.000000
     5  H    3.384481   1.168251   4.343875   3.799903   0.000000
     6  H    3.385008   1.168272   3.802307   4.343142   1.925189
                    6
     6  H    0.000000
 Symmetry turned off by external request.
 Stoichiometry    CH4N(1+)
 Framework group  C1[X(CH4N)]
 Deg. of freedom    12
 Full point group                 C1      NOp   1
 Rotational constants (GHZ):    111.7684238      8.7665281      8.1290130
 Standard basis: 6-31G(d) (6D, 7F)
 Integral buffers will be    131072 words long.
 Raffenetti 2 integral format.
 Two-electron integral symmetry is turned off.
    38 basis functions,    72 primitive gaussians,    38 cartesian basis functions
     8 alpha electrons        8 beta electrons
       nuclear repulsion energy        25.0567734382 Hartrees.
 NAtoms=    6 NActive=    6 NUniq=    6 SFac= 7.50D-01 NAtFMM=   80 NAOKFM=F Big=F
 One-electron integrals computed using PRISM.
 NBasis=    38 RedAO= T  NBF=    38
 NBsUse=    38 1.00D-06 NBFU=    38
 Harris functional with IExCor=10402 diagonalized for initial guess.
 ExpMin= 1.61D-01 ExpMax= 4.17D+03 ExpMxC= 6.27D+02 IAcc=1 IRadAn=         1 AccDes= 0.00D+00
 HarFok:  IExCor=10402 AccDes= 0.00D+00 IRadAn=         1 IDoV= 1
 ScaDFX=  1.000000  1.000000  1.000000  1.000000
 FoFCou: FMM=F IPFlag=           0 FMFlag=      100000 FMFlg1=           0
         NFxFlg=           0 DoJE=T BraDBF=F KetDBF=T FulRan=T
         Omega=  0.000000  0.000000  1.000000  0.000000  0.000000 ICntrl=     500 IOpCl=  0
         NMat0=    1 NMatS0=    1 NMatT0=    0 NMatD0=    1 NMtDS0=    0 NMtDT0=    0
         I1Cent=           4 NGrid=           0.
 Symmetry not used in FoFCou.
 Requested convergence on RMS density matrix=1.00D-08 within**** cycles.
 Requested convergence on MAX density matrix=1.00D-06.
 Requested convergence on             energy=1.00D-06.
 No special actions if energy rises.
 Integral accuracy reduced to 1.0D-05 until final iterations.
 FoFJK:  IHMeth= 1 ICntrl=     0 DoSepK=T KAlg= 1 I1Cent= 0 FoldK=F
 FoFJK:  IHMeth= 1 ICntrl=     0 DoSepK=T KAlg= 1 I1Cent= 0 FoldK=F
 FoFJK:  IHMeth= 1 ICntrl=     0 DoSepK=T KAlg= 1 I1Cent= 0 FoldK=F
 FoFJK:  IHMeth= 1 ICntrl=     0 DoSepK=T KAlg= 1 I1Cent= 0 FoldK=F
 FoFJK:  IHMeth= 1 ICntrl=     0 DoSepK=T KAlg= 1 I1Cent= 0 FoldK=F
 FoFJK:  IHMeth= 1 ICntrl=     0 DoSepK=T KAlg= 1 I1Cent= 0 FoldK=F
 FoFJK:  IHMeth= 1 ICntrl=     0 DoSepK=T KAlg= 1 I1Cent= 0 FoldK=F
 FoFJK:  IHMeth= 1 ICntrl=     0 DoSepK=T KAlg= 1 I1Cent= 0 FoldK=F
 Rare condition: small coef for last iteration:  0.000D+00
 FoFJK:  IHMeth= 1 ICntrl=     0 DoSepK=T KAlg= 1 I1Cent= 0 FoldK=F
 Rare condition: small coef for last iteration:  0.000D+00
 Problem detected with inexpensive integrals.
 Switching to full accuracy and repeating last cycle.
 FoFJK:  IHMeth= 1 ICntrl=     0 DoSepK=T KAlg= 1 I1Cent= 0 FoldK=F
 FoFJK:  IHMeth= 1 ICntrl=     0 DoSepK=T KAlg= 1 I1Cent= 0 FoldK=F
 FoFJK:  IHMeth= 1 ICntrl=     0 DoSepK=T KAlg= 1 I1Cent= 0 FoldK=F
 FoFJK:  IHMeth= 1 ICntrl=     0 DoSepK=T KAlg= 1 I1Cent= 0 FoldK=F
 FoFJK:  IHMeth= 1 ICntrl=     0 DoSepK=T KAlg= 1 I1Cent= 0 FoldK=F
 FoFJK:  IHMeth= 1 ICntrl=     0 DoSepK=T KAlg= 1 I1Cent= 0 FoldK=F
 FoFJK:  IHMeth= 1 ICntrl=     0 DoSepK=T KAlg= 1 I1Cent= 0 FoldK=F
 FoFJK:  IHMeth= 1 ICntrl=     0 DoSepK=T KAlg= 1 I1Cent= 0 FoldK=F
 Rare condition: small coef for last iteration:  0.000D+00
 FoFJK:  IHMeth= 1 ICntrl=     0 DoSepK=T KAlg= 1 I1Cent= 0 FoldK=F
 Rare condition: small coef for last iteration:  0.000D+00
 FoFJK:  IHMeth= 1 ICntrl=     0 DoSepK=T KAlg= 1 I1Cent= 0 FoldK=F
 FoFJK:  IHMeth= 1 ICntrl=     0 DoSepK=T KAlg= 1 I1Cent= 0 FoldK=F
 FoFJK:  IHMeth= 1 ICntrl=     0 DoSepK=T KAlg= 1 I1Cent= 0 FoldK=F
 FoFJK:  IHMeth= 1 ICntrl=     0 DoSepK=T KAlg= 1 I1Cent= 0 FoldK=F
 FoFJK:  IHMeth= 1 ICntrl=     0 DoSepK=T KAlg= 1 I1Cent= 0 FoldK=F
 FoFJK:  IHMeth= 1 ICntrl=     0 DoSepK=T KAlg= 1 I1Cent= 0 FoldK=F
 FoFJK:  IHMeth= 1 ICntrl=     0 DoSepK=T KAlg= 1 I1Cent= 0 FoldK=F
 Rare condition: small coef for last iteration:  0.000D+00
 FoFJK:  IHMeth= 1 ICntrl=     0 DoSepK=T KAlg= 1 I1Cent= 0 FoldK=F
 FoFJK:  IHMeth= 1 ICntrl=     0 DoSepK=T KAlg= 1 I1Cent= 0 FoldK=F
 FoFJK:  IHMeth= 1 ICntrl=     0 DoSepK=T KAlg= 1 I1Cent= 0 FoldK=F
 Restarting incremental Fock formation.
 FoFJK:  IHMeth= 1 ICntrl=     0 DoSepK=T KAlg= 1 I1Cent= 0 FoldK=F
 FoFJK:  IHMeth= 1 ICntrl=     0 DoSepK=T KAlg= 1 I1Cent= 0 FoldK=F
 FoFJK:  IHMeth= 1 ICntrl=     0 DoSepK=T KAlg= 1 I1Cent= 0 FoldK=F
 Rare condition: small coef for last iteration:  0.000D+00
 FoFJK:  IHMeth= 1 ICntrl=     0 DoSepK=T KAlg= 1 I1Cent= 0 FoldK=F
 Rare condition: small coef for last iteration:  0.000D+00
 FoFJK:  IHMeth= 1 ICntrl=     0 DoSepK=T KAlg= 1 I1Cent= 0 FoldK=F
 FoFJK:  IHMeth= 1 ICntrl=     0 DoSepK=T KAlg= 1 I1Cent= 0 FoldK=F
 FoFJK:  IHMeth= 1 ICntrl=     0 DoSepK=T KAlg= 1 I1Cent= 0 FoldK=F
 FoFJK:  IHMeth= 1 ICntrl=     0 DoSepK=T KAlg= 1 I1Cent= 0 FoldK=F
 Rare condition: small coef for last iteration:  0.000D+00
 FoFJK:  IHMeth= 1 ICntrl=     0 DoSepK=T KAlg= 1 I1Cent= 0 FoldK=F
 FoFJK:  IHMeth= 1 ICntrl=     0 DoSepK=T KAlg= 1 I1Cent= 0 FoldK=F
 Rare condition: small coef for last iteration:  0.000D+00
 FoFJK:  IHMeth= 1 ICntrl=     0 DoSepK=T KAlg= 1 I1Cent= 0 FoldK=F
 FoFJK:  IHMeth= 1 ICntrl=     0 DoSepK=T KAlg= 1 I1Cent= 0 FoldK=F
 Rare condition: small coef for last iteration:  0.000D+00
 FoFJK:  IHMeth= 1 ICntrl=     0 DoSepK=T KAlg= 1 I1Cent= 0 FoldK=F
 FoFJK:  IHMeth= 1 ICntrl=     0 DoSepK=T KAlg= 1 I1Cent= 0 FoldK=F
 Rare condition: small coef for last iteration:  0.000D+00
 FoFJK:  IHMeth= 1 ICntrl=     0 DoSepK=T KAlg= 1 I1Cent= 0 FoldK=F
 FoFJK:  IHMeth= 1 ICntrl=     0 DoSepK=T KAlg= 1 I1Cent= 0 FoldK=F
 Rare condition: small coef for last iteration:  0.000D+00
 FoFJK:  IHMeth= 1 ICntrl=     0 DoSepK=T KAlg= 1 I1Cent= 0 FoldK=F
 FoFJK:  IHMeth= 1 ICntrl=     0 DoSepK=T KAlg= 1 I1Cent= 0 FoldK=F
 FoFJK:  IHMeth= 1 ICntrl=     0 DoSepK=T KAlg= 1 I1Cent= 0 FoldK=F
 FoFJK:  IHMeth= 1 ICntrl=     0 DoSepK=T KAlg= 1 I1Cent= 0 FoldK=F
 Rare condition: small coef for last iteration:  0.000D+00
 Restarting incremental Fock formation.
 FoFJK:  IHMeth= 1 ICntrl=     0 DoSepK=T KAlg= 1 I1Cent= 0 FoldK=F
 FoFJK:  IHMeth= 1 ICntrl=     0 DoSepK=T KAlg= 1 I1Cent= 0 FoldK=F
 EnCoef did   100 forward-backward iterations
 FoFJK:  IHMeth= 1 ICntrl=     0 DoSepK=T KAlg= 1 I1Cent= 0 FoldK=F
 FoFJK:  IHMeth= 1 ICntrl=     0 DoSepK=T KAlg= 1 I1Cent= 0 FoldK=F
 FoFJK:  IHMeth= 1 ICntrl=     0 DoSepK=T KAlg= 1 I1Cent= 0 FoldK=F
 Rare condition: small coef for last iteration:  0.000D+00
 FoFJK:  IHMeth= 1 ICntrl=     0 DoSepK=T KAlg= 1 I1Cent= 0 FoldK=F
 Matrix for removal 11 Erem= -94.2112375843090     Crem= 0.000D+00
 FoFJK:  IHMeth= 1 ICntrl=     0 DoSepK=T KAlg= 1 I1Cent= 0 FoldK=F
 Rare condition: small coef for last iteration:  0.000D+00
 Matrix for removal 14 Erem= -94.2178227514508     Crem= 0.000D+00
 FoFJK:  IHMeth= 1 ICntrl=     0 DoSepK=T KAlg= 1 I1Cent= 0 FoldK=F
 Matrix for removal 10 Erem= -94.2282705354239     Crem= 0.000D+00
 FoFJK:  IHMeth= 1 ICntrl=     0 DoSepK=T KAlg= 1 I1Cent= 0 FoldK=F
 Rare condition: small coef for last iteration:  0.000D+00
 Matrix for removal 10 Erem= -94.2282943886093     Crem= 0.000D+00
 FoFJK:  IHMeth= 1 ICntrl=     0 DoSepK=T KAlg= 1 I1Cent= 0 FoldK=F
 FoFJK:  IHMeth= 1 ICntrl=     0 DoSepK=T KAlg= 1 I1Cent= 0 FoldK=F
 Rare condition: small coef for last iteration:  0.000D+00
 FoFJK:  IHMeth= 1 ICntrl=     0 DoSepK=T KAlg= 1 I1Cent= 0 FoldK=F
 FoFJK:  IHMeth= 1 ICntrl=     0 DoSepK=T KAlg= 1 I1Cent= 0 FoldK=F
 FoFJK:  IHMeth= 1 ICntrl=     0 DoSepK=T KAlg= 1 I1Cent= 0 FoldK=F
 FoFJK:  IHMeth= 1 ICntrl=     0 DoSepK=T KAlg= 1 I1Cent= 0 FoldK=F
 Rare condition: small coef for last iteration:  0.000D+00
 FoFJK:  IHMeth= 1 ICntrl=     0 DoSepK=T KAlg= 1 I1Cent= 0 FoldK=F
 FoFJK:  IHMeth= 1 ICntrl=     0 DoSepK=T KAlg= 1 I1Cent= 0 FoldK=F
 FoFJK:  IHMeth= 1 ICntrl=     0 DoSepK=T KAlg= 1 I1Cent= 0 FoldK=F
 Rare condition: small coef for last iteration:  0.000D+00
 FoFJK:  IHMeth= 1 ICntrl=     0 DoSepK=T KAlg= 1 I1Cent= 0 FoldK=F
 FoFJK:  IHMeth= 1 ICntrl=     0 DoSepK=T KAlg= 1 I1Cent= 0 FoldK=F
 Rare condition: small coef for last iteration:  0.000D+00
 Restarting incremental Fock formation.
 FoFJK:  IHMeth= 1 ICntrl=     0 DoSepK=T KAlg= 1 I1Cent= 0 FoldK=F
 FoFJK:  IHMeth= 1 ICntrl=     0 DoSepK=T KAlg= 1 I1Cent= 0 FoldK=F
 Rare condition: small coef for last iteration:  0.000D+00
 FoFJK:  IHMeth= 1 ICntrl=     0 DoSepK=T KAlg= 1 I1Cent= 0 FoldK=F
 FoFJK:  IHMeth= 1 ICntrl=     0 DoSepK=T KAlg= 1 I1Cent= 0 FoldK=F
 FoFJK:  IHMeth= 1 ICntrl=     0 DoSepK=T KAlg= 1 I1Cent= 0 FoldK=F
 EnCoef did   100 forward-backward iterations
 FoFJK:  IHMeth= 1 ICntrl=     0 DoSepK=T KAlg= 1 I1Cent= 0 FoldK=F
 FoFJK:  IHMeth= 1 ICntrl=     0 DoSepK=T KAlg= 1 I1Cent= 0 FoldK=F
 Rare condition: small coef for last iteration:  0.000D+00
 FoFJK:  IHMeth= 1 ICntrl=     0 DoSepK=T KAlg= 1 I1Cent= 0 FoldK=F
 FoFJK:  IHMeth= 1 ICntrl=     0 DoSepK=T KAlg= 1 I1Cent= 0 FoldK=F
 Rare condition: small coef for last iteration:  0.000D+00
 FoFJK:  IHMeth= 1 ICntrl=     0 DoSepK=T KAlg= 1 I1Cent= 0 FoldK=F
 FoFJK:  IHMeth= 1 ICntrl=     0 DoSepK=T KAlg= 1 I1Cent= 0 FoldK=F
 FoFJK:  IHMeth= 1 ICntrl=     0 DoSepK=T KAlg= 1 I1Cent= 0 FoldK=F
 FoFJK:  IHMeth= 1 ICntrl=     0 DoSepK=T KAlg= 1 I1Cent= 0 FoldK=F
 Rare condition: small coef for last iteration:  0.000D+00
 FoFJK:  IHMeth= 1 ICntrl=     0 DoSepK=T KAlg= 1 I1Cent= 0 FoldK=F
 FoFJK:  IHMeth= 1 ICntrl=     0 DoSepK=T KAlg= 1 I1Cent= 0 FoldK=F
 Rare condition: small coef for last iteration:  0.000D+00
 FoFJK:  IHMeth= 1 ICntrl=     0 DoSepK=T KAlg= 1 I1Cent= 0 FoldK=F
 FoFJK:  IHMeth= 1 ICntrl=     0 DoSepK=T KAlg= 1 I1Cent= 0 FoldK=F
 Rare condition: small coef for last iteration:  0.000D+00
 FoFJK:  IHMeth= 1 ICntrl=     0 DoSepK=T KAlg= 1 I1Cent= 0 FoldK=F
 FoFJK:  IHMeth= 1 ICntrl=     0 DoSepK=T KAlg= 1 I1Cent= 0 FoldK=F
 FoFJK:  IHMeth= 1 ICntrl=     0 DoSepK=T KAlg= 1 I1Cent= 0 FoldK=F
 Rare condition: small coef for last iteration:  0.000D+00
 Restarting incremental Fock formation.
 FoFJK:  IHMeth= 1 ICntrl=     0 DoSepK=T KAlg= 1 I1Cent= 0 FoldK=F
 FoFJK:  IHMeth= 1 ICntrl=     0 DoSepK=T KAlg= 1 I1Cent= 0 FoldK=F
 Rare condition: small coef for last iteration:  0.000D+00
 FoFJK:  IHMeth= 1 ICntrl=     0 DoSepK=T KAlg= 1 I1Cent= 0 FoldK=F
 EnCoef did   100 forward-backward iterations
 FoFJK:  IHMeth= 1 ICntrl=     0 DoSepK=T KAlg= 1 I1Cent= 0 FoldK=F
 EnCoef did   100 forward-backward iterations
 Rare condition: small coef for last iteration:  0.182D-14
 Matrix for removal 13 Erem= -94.2267505683639     Crem= 0.000D+00
 FoFJK:  IHMeth= 1 ICntrl=     0 DoSepK=T KAlg= 1 I1Cent= 0 FoldK=F
 EnCoef did   100 forward-backward iterations
 Rare condition: small coef for last iteration:  0.202D-17
 Matrix for removal  9 Erem= -94.2278935935325     Crem= 0.000D+00
 FoFJK:  IHMeth= 1 ICntrl=     0 DoSepK=T KAlg= 1 I1Cent= 0 FoldK=F
 Matrix for removal 10 Erem= -94.2282052944080     Crem= 0.000D+00
 FoFJK:  IHMeth= 1 ICntrl=     0 DoSepK=T KAlg= 1 I1Cent= 0 FoldK=F
 Matrix for removal  7 Erem= -94.2283426315650     Crem= 0.000D+00
 FoFJK:  IHMeth= 1 ICntrl=     0 DoSepK=T KAlg= 1 I1Cent= 0 FoldK=F
 Rare condition: small coef for last iteration:  0.000D+00
 Matrix for removal 10 Erem= -94.2284056572130     Crem= 0.000D+00
 FoFJK:  IHMeth= 1 ICntrl=     0 DoSepK=T KAlg= 1 I1Cent= 0 FoldK=F
 EnCoef did   100 forward-backward iterations
 Rare condition: small coef for last iteration:  0.350D-18
 Matrix for removal 19 Erem= -94.2293853390680     Crem= 0.000D+00
 FoFJK:  IHMeth= 1 ICntrl=     0 DoSepK=T KAlg= 1 I1Cent= 0 FoldK=F
 EnCoef did   100 forward-backward iterations
 FoFJK:  IHMeth= 1 ICntrl=     0 DoSepK=T KAlg= 1 I1Cent= 0 FoldK=F
 EnCoef did   100 forward-backward iterations
 Rare condition: small coef for last iteration: -0.321D-15
 Matrix for removal 15 Erem= -94.2295499668885     Crem= 0.000D+00
 FoFJK:  IHMeth= 1 ICntrl=     0 DoSepK=T KAlg= 1 I1Cent= 0 FoldK=F
 EnCoef did   100 forward-backward iterations
 Matrix for removal 17 Erem= -94.2295696295400     Crem= 0.000D+00
 FoFJK:  IHMeth= 1 ICntrl=     0 DoSepK=T KAlg= 1 I1Cent= 0 FoldK=F
 EnCoef did   100 forward-backward iterations
 Rare condition: small coef for last iteration: -0.431D-15
 Matrix for removal 18 Erem= -94.2296388352988     Crem= 0.000D+00
 FoFJK:  IHMeth= 1 ICntrl=     0 DoSepK=T KAlg= 1 I1Cent= 0 FoldK=F
 EnCoef did   100 forward-backward iterations
 Rare condition: small coef for last iteration:  0.000D+00
 Matrix for removal 17 Erem= -94.2297286677590     Crem= 0.000D+00
 FoFJK:  IHMeth= 1 ICntrl=     0 DoSepK=T KAlg= 1 I1Cent= 0 FoldK=F
 EnCoef did   100 forward-backward iterations
 FoFJK:  IHMeth= 1 ICntrl=     0 DoSepK=T KAlg= 1 I1Cent= 0 FoldK=F
 EnCoef did   100 forward-backward iterations
 Rare condition: small coef for last iteration:  0.117D-15
 FoFJK:  IHMeth= 1 ICntrl=     0 DoSepK=T KAlg= 1 I1Cent= 0 FoldK=F
 Matrix for removal 13 Erem= -94.2298700788407     Crem= 0.000D+00
 FoFJK:  IHMeth= 1 ICntrl=     0 DoSepK=T KAlg= 1 I1Cent= 0 FoldK=F
 Matrix for removal 19 Erem= -94.2088441382027     Crem= 0.000D+00
 FoFJK:  IHMeth= 1 ICntrl=     0 DoSepK=T KAlg= 1 I1Cent= 0 FoldK=F
 FoFJK:  IHMeth= 1 ICntrl=     0 DoSepK=T KAlg= 1 I1Cent= 0 FoldK=F
 Rare condition: small coef for last iteration:  0.000D+00
 Matrix for removal 17 Erem= -94.2298710783935     Crem= 0.000D+00
 Restarting incremental Fock formation.
 FoFJK:  IHMeth= 1 ICntrl=     0 DoSepK=T KAlg= 1 I1Cent= 0 FoldK=F
 FoFJK:  IHMeth= 1 ICntrl=     0 DoSepK=T KAlg= 1 I1Cent= 0 FoldK=F
 FoFJK:  IHMeth= 1 ICntrl=     0 DoSepK=T KAlg= 1 I1Cent= 0 FoldK=F
 FoFJK:  IHMeth= 1 ICntrl=     0 DoSepK=T KAlg= 1 I1Cent= 0 FoldK=F
 Rare condition: small coef for last iteration:  0.000D+00
 FoFJK:  IHMeth= 1 ICntrl=     0 DoSepK=T KAlg= 1 I1Cent= 0 FoldK=F
 FoFJK:  IHMeth= 1 ICntrl=     0 DoSepK=T KAlg= 1 I1Cent= 0 FoldK=F
 Rare condition: small coef for last iteration:  0.000D+00
 FoFJK:  IHMeth= 1 ICntrl=     0 DoSepK=T KAlg= 1 I1Cent= 0 FoldK=F
 FoFJK:  IHMeth= 1 ICntrl=     0 DoSepK=T KAlg= 1 I1Cent= 0 FoldK=F
 EnCoef did   100 forward-backward iterations
 Matrix for removal 19 Erem= -94.2082779289278     Crem= 0.000D+00
 FoFJK:  IHMeth= 1 ICntrl=     0 DoSepK=T KAlg= 1 I1Cent= 0 FoldK=F
 Matrix for removal 19 Erem= -94.2285951634014     Crem= 0.000D+00
 FoFJK:  IHMeth= 1 ICntrl=     0 DoSepK=T KAlg= 1 I1Cent= 0 FoldK=F
 Rare condition: small coef for last iteration:  0.000D+00
 Matrix for removal 18 Erem= -94.2288270912477     Crem= 0.000D+00
 FoFJK:  IHMeth= 1 ICntrl=     0 DoSepK=T KAlg= 1 I1Cent= 0 FoldK=F
 Matrix for removal 16 Erem= -94.2290295601137     Crem= 0.000D+00
 FoFJK:  IHMeth= 1 ICntrl=     0 DoSepK=T KAlg= 1 I1Cent= 0 FoldK=F
 Matrix for removal 18 Erem= -94.2301169496501     Crem= 0.000D+00
 FoFJK:  IHMeth= 1 ICntrl=     0 DoSepK=T KAlg= 1 I1Cent= 0 FoldK=F
 Matrix for removal 11 Erem= -94.2302080928453     Crem= 0.000D+00
 FoFJK:  IHMeth= 1 ICntrl=     0 DoSepK=T KAlg= 1 I1Cent= 0 FoldK=F
 Rare condition: small coef for last iteration:  0.000D+00
 Matrix for removal 13 Erem= -94.2302837228128     Crem= 0.000D+00
 FoFJK:  IHMeth= 1 ICntrl=     0 DoSepK=T KAlg= 1 I1Cent= 0 FoldK=F
 Matrix for removal  7 Erem= -94.2303253413902     Crem= 0.000D+00
 FoFJK:  IHMeth= 1 ICntrl=     0 DoSepK=T KAlg= 1 I1Cent= 0 FoldK=F
 Rare condition: small coef for last iteration:  0.000D+00
 Matrix for removal 11 Erem= -94.2303419552591     Crem= 0.000D+00
 FoFJK:  IHMeth= 1 ICntrl=     0 DoSepK=T KAlg= 1 I1Cent= 0 FoldK=F
 EnCoef did   100 forward-backward iterations
 Rare condition: small coef for last iteration:  0.000D+00
 FoFJK:  IHMeth= 1 ICntrl=     0 DoSepK=T KAlg= 1 I1Cent= 0 FoldK=F
 Rare condition: small coef for last iteration:  0.000D+00
 FoFJK:  IHMeth= 1 ICntrl=     0 DoSepK=T KAlg= 1 I1Cent= 0 FoldK=F
 Matrix for removal  6 Erem= -94.2306301449994     Crem= 0.000D+00
 FoFJK:  IHMeth= 1 ICntrl=     0 DoSepK=T KAlg= 1 I1Cent= 0 FoldK=F
 Matrix for removal 19 Erem= -94.2104368167391     Crem= 0.000D+00
 Restarting incremental Fock formation.
 FoFJK:  IHMeth= 1 ICntrl=     0 DoSepK=T KAlg= 1 I1Cent= 0 FoldK=F
 FoFJK:  IHMeth= 1 ICntrl=     0 DoSepK=T KAlg= 1 I1Cent= 0 FoldK=F
 FoFJK:  IHMeth= 1 ICntrl=     0 DoSepK=T KAlg= 1 I1Cent= 0 FoldK=F
 FoFJK:  IHMeth= 1 ICntrl=     0 DoSepK=T KAlg= 1 I1Cent= 0 FoldK=F
 FoFJK:  IHMeth= 1 ICntrl=     0 DoSepK=T KAlg= 1 I1Cent= 0 FoldK=F
 Rare condition: small coef for last iteration:  0.000D+00
 FoFJK:  IHMeth= 1 ICntrl=     0 DoSepK=T KAlg= 1 I1Cent= 0 FoldK=F
 FoFJK:  IHMeth= 1 ICntrl=     0 DoSepK=T KAlg= 1 I1Cent= 0 FoldK=F
 FoFJK:  IHMeth= 1 ICntrl=     0 DoSepK=T KAlg= 1 I1Cent= 0 FoldK=F
 FoFJK:  IHMeth= 1 ICntrl=     0 DoSepK=T KAlg= 1 I1Cent= 0 FoldK=F
 EnCoef did   100 forward-backward iterations
 FoFJK:  IHMeth= 1 ICntrl=     0 DoSepK=T KAlg= 1 I1Cent= 0 FoldK=F
 EnCoef did   100 forward-backward iterations
 Rare condition: small coef for last iteration: -0.231D-15
 FoFJK:  IHMeth= 1 ICntrl=     0 DoSepK=T KAlg= 1 I1Cent= 0 FoldK=F
 EnCoef did   100 forward-backward iterations
 Rare condition: small coef for last iteration:  0.000D+00
 FoFJK:  IHMeth= 1 ICntrl=     0 DoSepK=T KAlg= 1 I1Cent= 0 FoldK=F
 FoFJK:  IHMeth= 1 ICntrl=     0 DoSepK=T KAlg= 1 I1Cent= 0 FoldK=F
 Matrix for removal 13 Erem= -94.2078645951585     Crem= 0.000D+00
 FoFJK:  IHMeth= 1 ICntrl=     0 DoSepK=T KAlg= 1 I1Cent= 0 FoldK=F
 Rare condition: small coef for last iteration:  0.000D+00
 Matrix for removal 10 Erem= -94.2180292460515     Crem= 0.000D+00
 FoFJK:  IHMeth= 1 ICntrl=     0 DoSepK=T KAlg= 1 I1Cent= 0 FoldK=F
 Rare condition: small coef for last iteration:  0.000D+00
 Matrix for removal 11 Erem= -94.2265563719437     Crem= 0.000D+00
 FoFJK:  IHMeth= 1 ICntrl=     0 DoSepK=T KAlg= 1 I1Cent= 0 FoldK=F
 Matrix for removal 11 Erem= -94.2271698870641     Crem= 0.000D+00
 FoFJK:  IHMeth= 1 ICntrl=     0 DoSepK=T KAlg= 1 I1Cent= 0 FoldK=F
 EnCoef did   100 forward-backward iterations
 Matrix for removal 11 Erem= -94.2292403629827     Crem= 0.000D+00
 FoFJK:  IHMeth= 1 ICntrl=     0 DoSepK=T KAlg= 1 I1Cent= 0 FoldK=F
 Matrix for removal 11 Erem= -94.2292403629827     Crem= 0.000D+00
 FoFJK:  IHMeth= 1 ICntrl=     0 DoSepK=T KAlg= 1 I1Cent= 0 FoldK=F
 Matrix for removal 16 Erem= -94.2297833833770     Crem= 0.000D+00
 FoFJK:  IHMeth= 1 ICntrl=     0 DoSepK=T KAlg= 1 I1Cent= 0 FoldK=F
 Rare condition: small coef for last iteration:  0.000D+00
 Matrix for removal 18 Erem= -94.2301548510253     Crem= 0.000D+00
 Restarting incremental Fock formation.
 FoFJK:  IHMeth= 1 ICntrl=     0 DoSepK=T KAlg= 1 I1Cent= 0 FoldK=F
 FoFJK:  IHMeth= 1 ICntrl=     0 DoSepK=T KAlg= 1 I1Cent= 0 FoldK=F
 Rare condition: small coef for last iteration:  0.000D+00
 FoFJK:  IHMeth= 1 ICntrl=     0 DoSepK=T KAlg= 1 I1Cent= 0 FoldK=F
 FoFJK:  IHMeth= 1 ICntrl=     0 DoSepK=T KAlg= 1 I1Cent= 0 FoldK=F
 FoFJK:  IHMeth= 1 ICntrl=     0 DoSepK=T KAlg= 1 I1Cent= 0 FoldK=F
 Rare condition: small coef for last iteration:  0.000D+00
 Matrix for removal 17 Erem= -94.2292767169803     Crem= 0.000D+00
 FoFJK:  IHMeth= 1 ICntrl=     0 DoSepK=T KAlg= 1 I1Cent= 0 FoldK=F
 Rare condition: small coef for last iteration:  0.000D+00
 Matrix for removal 15 Erem= -94.2295920135062     Crem= 0.000D+00
 FoFJK:  IHMeth= 1 ICntrl=     0 DoSepK=T KAlg= 1 I1Cent= 0 FoldK=F
 Rare condition: small coef for last iteration:  0.000D+00
 FoFJK:  IHMeth= 1 ICntrl=     0 DoSepK=T KAlg= 1 I1Cent= 0 FoldK=F
 Rare condition: small coef for last iteration:  0.000D+00
 FoFJK:  IHMeth= 1 ICntrl=     0 DoSepK=T KAlg= 1 I1Cent= 0 FoldK=F
 Rare condition: small coef for last iteration:  0.000D+00
 Matrix for removal 19 Erem= -94.2290070042645     Crem= 0.000D+00
 FoFJK:  IHMeth= 1 ICntrl=     0 DoSepK=T KAlg= 1 I1Cent= 0 FoldK=F
 Matrix for removal 19 Erem= -94.2289388563160     Crem= 0.000D+00
 FoFJK:  IHMeth= 1 ICntrl=     0 DoSepK=T KAlg= 1 I1Cent= 0 FoldK=F
 Rare condition: small coef for last iteration:  0.000D+00
 Matrix for removal 18 Erem= -94.2295979682801     Crem= 0.000D+00
 FoFJK:  IHMeth= 1 ICntrl=     0 DoSepK=T KAlg= 1 I1Cent= 0 FoldK=F
 Matrix for removal 19 Erem= -94.2297628743982     Crem= 0.000D+00
 FoFJK:  IHMeth= 1 ICntrl=     0 DoSepK=T KAlg= 1 I1Cent= 0 FoldK=F
 FoFJK:  IHMeth= 1 ICntrl=     0 DoSepK=T KAlg= 1 I1Cent= 0 FoldK=F
 Rare condition: small coef for last iteration:  0.000D+00
 FoFJK:  IHMeth= 1 ICntrl=     0 DoSepK=T KAlg= 1 I1Cent= 0 FoldK=F
 Matrix for removal 17 Erem= -94.2305496818113     Crem= 0.000D+00
 FoFJK:  IHMeth= 1 ICntrl=     0 DoSepK=T KAlg= 1 I1Cent= 0 FoldK=F
 Matrix for removal 19 Erem= -94.2166549182877     Crem= 0.000D+00
 FoFJK:  IHMeth= 1 ICntrl=     0 DoSepK=T KAlg= 1 I1Cent= 0 FoldK=F
 FoFJK:  IHMeth= 1 ICntrl=     0 DoSepK=T KAlg= 1 I1Cent= 0 FoldK=F
 Rare condition: small coef for last iteration:  0.000D+00
 Matrix for removal 19 Erem= -94.2304442817434     Crem= 0.000D+00
 FoFJK:  IHMeth= 1 ICntrl=     0 DoSepK=T KAlg= 1 I1Cent= 0 FoldK=F
 FoFJK:  IHMeth= 1 ICntrl=     0 DoSepK=T KAlg= 1 I1Cent= 0 FoldK=F
 EnCoef did   100 forward-backward iterations
 Restarting incremental Fock formation.
 FoFJK:  IHMeth= 1 ICntrl=     0 DoSepK=T KAlg= 1 I1Cent= 0 FoldK=F
 EnCoef did   100 forward-backward iterations
 Matrix for removal 17 Erem= -94.2288449421141     Crem= 0.000D+00
 FoFJK:  IHMeth= 1 ICntrl=     0 DoSepK=T KAlg= 1 I1Cent= 0 FoldK=F
 EnCoef did   100 forward-backward iterations
 Rare condition: small coef for last iteration:  0.607D-16
 Matrix for removal 17 Erem= -94.2302256434350     Crem= 0.000D+00
 FoFJK:  IHMeth= 1 ICntrl=     0 DoSepK=T KAlg= 1 I1Cent= 0 FoldK=F
 EnCoef did   100 forward-backward iterations
 FoFJK:  IHMeth= 1 ICntrl=     0 DoSepK=T KAlg= 1 I1Cent= 0 FoldK=F
 EnCoef did   100 forward-backward iterations
 Rare condition: small coef for last iteration:  0.563D-15
 FoFJK:  IHMeth= 1 ICntrl=     0 DoSepK=T KAlg= 1 I1Cent= 0 FoldK=F
 FoFJK:  IHMeth= 1 ICntrl=     0 DoSepK=T KAlg= 1 I1Cent= 0 FoldK=F
 FoFJK:  IHMeth= 1 ICntrl=     0 DoSepK=T KAlg= 1 I1Cent= 0 FoldK=F
 FoFJK:  IHMeth= 1 ICntrl=     0 DoSepK=T KAlg= 1 I1Cent= 0 FoldK=F
 Rare condition: small coef for last iteration:  0.000D+00
 FoFJK:  IHMeth= 1 ICntrl=     0 DoSepK=T KAlg= 1 I1Cent= 0 FoldK=F
 FoFJK:  IHMeth= 1 ICntrl=     0 DoSepK=T KAlg= 1 I1Cent= 0 FoldK=F
 FoFJK:  IHMeth= 1 ICntrl=     0 DoSepK=T KAlg= 1 I1Cent= 0 FoldK=F
 FoFJK:  IHMeth= 1 ICntrl=     0 DoSepK=T KAlg= 1 I1Cent= 0 FoldK=F
 Rare condition: small coef for last iteration:  0.000D+00
 FoFJK:  IHMeth= 1 ICntrl=     0 DoSepK=T KAlg= 1 I1Cent= 0 FoldK=F
 Rare condition: small coef for last iteration:  0.000D+00
 FoFJK:  IHMeth= 1 ICntrl=     0 DoSepK=T KAlg= 1 I1Cent= 0 FoldK=F
 FoFJK:  IHMeth= 1 ICntrl=     0 DoSepK=T KAlg= 1 I1Cent= 0 FoldK=F
 FoFJK:  IHMeth= 1 ICntrl=     0 DoSepK=T KAlg= 1 I1Cent= 0 FoldK=F
 FoFJK:  IHMeth= 1 ICntrl=     0 DoSepK=T KAlg= 1 I1Cent= 0 FoldK=F
 EnCoef did   100 forward-backward iterations
 FoFJK:  IHMeth= 1 ICntrl=     0 DoSepK=T KAlg= 1 I1Cent= 0 FoldK=F
 EnCoef did   100 forward-backward iterations
 FoFJK:  IHMeth= 1 ICntrl=     0 DoSepK=T KAlg= 1 I1Cent= 0 FoldK=F
 EnCoef did   100 forward-backward iterations
 Rare condition: small coef for last iteration: -0.838D-15
 FoFJK:  IHMeth= 1 ICntrl=     0 DoSepK=T KAlg= 1 I1Cent= 0 FoldK=F
 Restarting incremental Fock formation.
 FoFJK:  IHMeth= 1 ICntrl=     0 DoSepK=T KAlg= 1 I1Cent= 0 FoldK=F
 Rare condition: small coef for last iteration:  0.000D+00
 FoFJK:  IHMeth= 1 ICntrl=     0 DoSepK=T KAlg= 1 I1Cent= 0 FoldK=F
 FoFJK:  IHMeth= 1 ICntrl=     0 DoSepK=T KAlg= 1 I1Cent= 0 FoldK=F
 FoFJK:  IHMeth= 1 ICntrl=     0 DoSepK=T KAlg= 1 I1Cent= 0 FoldK=F
 FoFJK:  IHMeth= 1 ICntrl=     0 DoSepK=T KAlg= 1 I1Cent= 0 FoldK=F
 Rare condition: small coef for last iteration:  0.000D+00
 FoFJK:  IHMeth= 1 ICntrl=     0 DoSepK=T KAlg= 1 I1Cent= 0 FoldK=F
 FoFJK:  IHMeth= 1 ICntrl=     0 DoSepK=T KAlg= 1 I1Cent= 0 FoldK=F
 EnCoef did   100 forward-backward iterations
 FoFJK:  IHMeth= 1 ICntrl=     0 DoSepK=T KAlg= 1 I1Cent= 0 FoldK=F
 FoFJK:  IHMeth= 1 ICntrl=     0 DoSepK=T KAlg= 1 I1Cent= 0 FoldK=F
 Rare condition: small coef for last iteration:  0.000D+00
 FoFJK:  IHMeth= 1 ICntrl=     0 DoSepK=T KAlg= 1 I1Cent= 0 FoldK=F
 FoFJK:  IHMeth= 1 ICntrl=     0 DoSepK=T KAlg= 1 I1Cent= 0 FoldK=F
 FoFJK:  IHMeth= 1 ICntrl=     0 DoSepK=T KAlg= 1 I1Cent= 0 FoldK=F
 Rare condition: small coef for last iteration:  0.000D+00
 FoFJK:  IHMeth= 1 ICntrl=     0 DoSepK=T KAlg= 1 I1Cent= 0 FoldK=F
 FoFJK:  IHMeth= 1 ICntrl=     0 DoSepK=T KAlg= 1 I1Cent= 0 FoldK=F
 FoFJK:  IHMeth= 1 ICntrl=     0 DoSepK=T KAlg= 1 I1Cent= 0 FoldK=F
 FoFJK:  IHMeth= 1 ICntrl=     0 DoSepK=T KAlg= 1 I1Cent= 0 FoldK=F
 FoFJK:  IHMeth= 1 ICntrl=     0 DoSepK=T KAlg= 1 I1Cent= 0 FoldK=F
 FoFJK:  IHMeth= 1 ICntrl=     0 DoSepK=T KAlg= 1 I1Cent= 0 FoldK=F
 Rare condition: small coef for last iteration:  0.000D+00
 FoFJK:  IHMeth= 1 ICntrl=     0 DoSepK=T KAlg= 1 I1Cent= 0 FoldK=F
 Rare condition: small coef for last iteration:  0.000D+00
 FoFJK:  IHMeth= 1 ICntrl=     0 DoSepK=T KAlg= 1 I1Cent= 0 FoldK=F
 Rare condition: small coef for last iteration:  0.000D+00
 Restarting incremental Fock formation.
 FoFJK:  IHMeth= 1 ICntrl=     0 DoSepK=T KAlg= 1 I1Cent= 0 FoldK=F
 FoFJK:  IHMeth= 1 ICntrl=     0 DoSepK=T KAlg= 1 I1Cent= 0 FoldK=F
 Rare condition: small coef for last iteration:  0.000D+00
 FoFJK:  IHMeth= 1 ICntrl=     0 DoSepK=T KAlg= 1 I1Cent= 0 FoldK=F
 FoFJK:  IHMeth= 1 ICntrl=     0 DoSepK=T KAlg= 1 I1Cent= 0 FoldK=F
 FoFJK:  IHMeth= 1 ICntrl=     0 DoSepK=T KAlg= 1 I1Cent= 0 FoldK=F
 FoFJK:  IHMeth= 1 ICntrl=     0 DoSepK=T KAlg= 1 I1Cent= 0 FoldK=F
 EnCoef did   100 forward-backward iterations
 FoFJK:  IHMeth= 1 ICntrl=     0 DoSepK=T KAlg= 1 I1Cent= 0 FoldK=F
 EnCoef did   100 forward-backward iterations
 FoFJK:  IHMeth= 1 ICntrl=     0 DoSepK=T KAlg= 1 I1Cent= 0 FoldK=F
 FoFJK:  IHMeth= 1 ICntrl=     0 DoSepK=T KAlg= 1 I1Cent= 0 FoldK=F
 Rare condition: small coef for last iteration:  0.000D+00
 FoFJK:  IHMeth= 1 ICntrl=     0 DoSepK=T KAlg= 1 I1Cent= 0 FoldK=F
 FoFJK:  IHMeth= 1 ICntrl=     0 DoSepK=T KAlg= 1 I1Cent= 0 FoldK=F
 FoFJK:  IHMeth= 1 ICntrl=     0 DoSepK=T KAlg= 1 I1Cent= 0 FoldK=F
 FoFJK:  IHMeth= 1 ICntrl=     0 DoSepK=T KAlg= 1 I1Cent= 0 FoldK=F
 FoFJK:  IHMeth= 1 ICntrl=     0 DoSepK=T KAlg= 1 I1Cent= 0 FoldK=F
 Rare condition: small coef for last iteration:  0.000D+00
 FoFJK:  IHMeth= 1 ICntrl=     0 DoSepK=T KAlg= 1 I1Cent= 0 FoldK=F
 FoFJK:  IHMeth= 1 ICntrl=     0 DoSepK=T KAlg= 1 I1Cent= 0 FoldK=F
 FoFJK:  IHMeth= 1 ICntrl=     0 DoSepK=T KAlg= 1 I1Cent= 0 FoldK=F
 Rare condition: small coef for last iteration:  0.000D+00
 FoFJK:  IHMeth= 1 ICntrl=     0 DoSepK=T KAlg= 1 I1Cent= 0 FoldK=F
 FoFJK:  IHMeth= 1 ICntrl=     0 DoSepK=T KAlg= 1 I1Cent= 0 FoldK=F
 Rare condition: small coef for last iteration:  0.000D+00
 FoFJK:  IHMeth= 1 ICntrl=     0 DoSepK=T KAlg= 1 I1Cent= 0 FoldK=F
 Restarting incremental Fock formation.
 FoFJK:  IHMeth= 1 ICntrl=     0 DoSepK=T KAlg= 1 I1Cent= 0 FoldK=F
 Rare condition: small coef for last iteration:  0.000D+00
 FoFJK:  IHMeth= 1 ICntrl=     0 DoSepK=T KAlg= 1 I1Cent= 0 FoldK=F
 FoFJK:  IHMeth= 1 ICntrl=     0 DoSepK=T KAlg= 1 I1Cent= 0 FoldK=F
 FoFJK:  IHMeth= 1 ICntrl=     0 DoSepK=T KAlg= 1 I1Cent= 0 FoldK=F
 Rare condition: small coef for last iteration:  0.000D+00
 FoFJK:  IHMeth= 1 ICntrl=     0 DoSepK=T KAlg= 1 I1Cent= 0 FoldK=F
 FoFJK:  IHMeth= 1 ICntrl=     0 DoSepK=T KAlg= 1 I1Cent= 0 FoldK=F
 Rare condition: small coef for last iteration:  0.000D+00
 FoFJK:  IHMeth= 1 ICntrl=     0 DoSepK=T KAlg= 1 I1Cent= 0 FoldK=F
 FoFJK:  IHMeth= 1 ICntrl=     0 DoSepK=T KAlg= 1 I1Cent= 0 FoldK=F
 FoFJK:  IHMeth= 1 ICntrl=     0 DoSepK=T KAlg= 1 I1Cent= 0 FoldK=F
 FoFJK:  IHMeth= 1 ICntrl=     0 DoSepK=T KAlg= 1 I1Cent= 0 FoldK=F
 FoFJK:  IHMeth= 1 ICntrl=     0 DoSepK=T KAlg= 1 I1Cent= 0 FoldK=F
 FoFJK:  IHMeth= 1 ICntrl=     0 DoSepK=T KAlg= 1 I1Cent= 0 FoldK=F
 FoFJK:  IHMeth= 1 ICntrl=     0 DoSepK=T KAlg= 1 I1Cent= 0 FoldK=F
 FoFJK:  IHMeth= 1 ICntrl=     0 DoSepK=T KAlg= 1 I1Cent= 0 FoldK=F
 FoFJK:  IHMeth= 1 ICntrl=     0 DoSepK=T KAlg= 1 I1Cent= 0 FoldK=F
 Rare condition: small coef for last iteration:  0.000D+00
 FoFJK:  IHMeth= 1 ICntrl=     0 DoSepK=T KAlg= 1 I1Cent= 0 FoldK=F
 FoFJK:  IHMeth= 1 ICntrl=     0 DoSepK=T KAlg= 1 I1Cent= 0 FoldK=F
 FoFJK:  IHMeth= 1 ICntrl=     0 DoSepK=T KAlg= 1 I1Cent= 0 FoldK=F
 FoFJK:  IHMeth= 1 ICntrl=     0 DoSepK=T KAlg= 1 I1Cent= 0 FoldK=F
 Rare condition: small coef for last iteration:  0.000D+00
 FoFJK:  IHMeth= 1 ICntrl=     0 DoSepK=T KAlg= 1 I1Cent= 0 FoldK=F
 Restarting incremental Fock formation.
 FoFJK:  IHMeth= 1 ICntrl=     0 DoSepK=T KAlg= 1 I1Cent= 0 FoldK=F
 FoFJK:  IHMeth= 1 ICntrl=     0 DoSepK=T KAlg= 1 I1Cent= 0 FoldK=F
 FoFJK:  IHMeth= 1 ICntrl=     0 DoSepK=T KAlg= 1 I1Cent= 0 FoldK=F
 Rare condition: small coef for last iteration:  0.000D+00
 FoFJK:  IHMeth= 1 ICntrl=     0 DoSepK=T KAlg= 1 I1Cent= 0 FoldK=F
 FoFJK:  IHMeth= 1 ICntrl=     0 DoSepK=T KAlg= 1 I1Cent= 0 FoldK=F
 Rare condition: small coef for last iteration:  0.000D+00
 FoFJK:  IHMeth= 1 ICntrl=     0 DoSepK=T KAlg= 1 I1Cent= 0 FoldK=F
 FoFJK:  IHMeth= 1 ICntrl=     0 DoSepK=T KAlg= 1 I1Cent= 0 FoldK=F
 FoFJK:  IHMeth= 1 ICntrl=     0 DoSepK=T KAlg= 1 I1Cent= 0 FoldK=F
 Rare condition: small coef for last iteration:  0.000D+00
 FoFJK:  IHMeth= 1 ICntrl=     0 DoSepK=T KAlg= 1 I1Cent= 0 FoldK=F
 FoFJK:  IHMeth= 1 ICntrl=     0 DoSepK=T KAlg= 1 I1Cent= 0 FoldK=F
 FoFJK:  IHMeth= 1 ICntrl=     0 DoSepK=T KAlg= 1 I1Cent= 0 FoldK=F
 Rare condition: small coef for last iteration:  0.000D+00
 FoFJK:  IHMeth= 1 ICntrl=     0 DoSepK=T KAlg= 1 I1Cent= 0 FoldK=F
 FoFJK:  IHMeth= 1 ICntrl=     0 DoSepK=T KAlg= 1 I1Cent= 0 FoldK=F
 FoFJK:  IHMeth= 1 ICntrl=     0 DoSepK=T KAlg= 1 I1Cent= 0 FoldK=F
 FoFJK:  IHMeth= 1 ICntrl=     0 DoSepK=T KAlg= 1 I1Cent= 0 FoldK=F
 Rare condition: small coef for last iteration:  0.000D+00
 FoFJK:  IHMeth= 1 ICntrl=     0 DoSepK=T KAlg= 1 I1Cent= 0 FoldK=F
 FoFJK:  IHMeth= 1 ICntrl=     0 DoSepK=T KAlg= 1 I1Cent= 0 FoldK=F
 Rare condition: small coef for last iteration:  0.000D+00
 FoFJK:  IHMeth= 1 ICntrl=     0 DoSepK=T KAlg= 1 I1Cent= 0 FoldK=F
 FoFJK:  IHMeth= 1 ICntrl=     0 DoSepK=T KAlg= 1 I1Cent= 0 FoldK=F
 Rare condition: small coef for last iteration:  0.000D+00
 FoFJK:  IHMeth= 1 ICntrl=     0 DoSepK=T KAlg= 1 I1Cent= 0 FoldK=F
 Restarting incremental Fock formation.
 FoFJK:  IHMeth= 1 ICntrl=     0 DoSepK=T KAlg= 1 I1Cent= 0 FoldK=F
 FoFJK:  IHMeth= 1 ICntrl=     0 DoSepK=T KAlg= 1 I1Cent= 0 FoldK=F
 FoFJK:  IHMeth= 1 ICntrl=     0 DoSepK=T KAlg= 1 I1Cent= 0 FoldK=F
 FoFJK:  IHMeth= 1 ICntrl=     0 DoSepK=T KAlg= 1 I1Cent= 0 FoldK=F
 Rare condition: small coef for last iteration:  0.000D+00
 FoFJK:  IHMeth= 1 ICntrl=     0 DoSepK=T KAlg= 1 I1Cent= 0 FoldK=F
 Rare condition: small coef for last iteration:  0.000D+00
 FoFJK:  IHMeth= 1 ICntrl=     0 DoSepK=T KAlg= 1 I1Cent= 0 FoldK=F
 Matrix for removal 14 Erem= -94.1852454332898     Crem= 0.000D+00
 FoFJK:  IHMeth= 1 ICntrl=     0 DoSepK=T KAlg= 1 I1Cent= 0 FoldK=F
 Rare condition: small coef for last iteration:  0.000D+00
 Matrix for removal 11 Erem= -94.2242247637130     Crem= 0.000D+00
 FoFJK:  IHMeth= 1 ICntrl=     0 DoSepK=T KAlg= 1 I1Cent= 0 FoldK=F
 Matrix for removal 12 Erem= -94.2244256987894     Crem= 0.000D+00
 FoFJK:  IHMeth= 1 ICntrl=     0 DoSepK=T KAlg= 1 I1Cent= 0 FoldK=F
 Matrix for removal 12 Erem= -94.2248957161993     Crem= 0.000D+00
 FoFJK:  IHMeth= 1 ICntrl=     0 DoSepK=T KAlg= 1 I1Cent= 0 FoldK=F
 FoFJK:  IHMeth= 1 ICntrl=     0 DoSepK=T KAlg= 1 I1Cent= 0 FoldK=F
 Rare condition: small coef for last iteration:  0.000D+00
 FoFJK:  IHMeth= 1 ICntrl=     0 DoSepK=T KAlg= 1 I1Cent= 0 FoldK=F
 FoFJK:  IHMeth= 1 ICntrl=     0 DoSepK=T KAlg= 1 I1Cent= 0 FoldK=F
 FoFJK:  IHMeth= 1 ICntrl=     0 DoSepK=T KAlg= 1 I1Cent= 0 FoldK=F
 FoFJK:  IHMeth= 1 ICntrl=     0 DoSepK=T KAlg= 1 I1Cent= 0 FoldK=F
 Rare condition: small coef for last iteration:  0.000D+00
 FoFJK:  IHMeth= 1 ICntrl=     0 DoSepK=T KAlg= 1 I1Cent= 0 FoldK=F
 FoFJK:  IHMeth= 1 ICntrl=     0 DoSepK=T KAlg= 1 I1Cent= 0 FoldK=F
 FoFJK:  IHMeth= 1 ICntrl=     0 DoSepK=T KAlg= 1 I1Cent= 0 FoldK=F
 Rare condition: small coef for last iteration:  0.000D+00
 FoFJK:  IHMeth= 1 ICntrl=     0 DoSepK=T KAlg= 1 I1Cent= 0 FoldK=F
 FoFJK:  IHMeth= 1 ICntrl=     0 DoSepK=T KAlg= 1 I1Cent= 0 FoldK=F
 Rare condition: small coef for last iteration:  0.000D+00
 Restarting incremental Fock formation.
 FoFJK:  IHMeth= 1 ICntrl=     0 DoSepK=T KAlg= 1 I1Cent= 0 FoldK=F
 FoFJK:  IHMeth= 1 ICntrl=     0 DoSepK=T KAlg= 1 I1Cent= 0 FoldK=F
 EnCoef did   100 forward-backward iterations
 FoFJK:  IHMeth= 1 ICntrl=     0 DoSepK=T KAlg= 1 I1Cent= 0 FoldK=F
 FoFJK:  IHMeth= 1 ICntrl=     0 DoSepK=T KAlg= 1 I1Cent= 0 FoldK=F
 Rare condition: small coef for last iteration:  0.000D+00
 FoFJK:  IHMeth= 1 ICntrl=     0 DoSepK=T KAlg= 1 I1Cent= 0 FoldK=F
 EnCoef did   100 forward-backward iterations
 FoFJK:  IHMeth= 1 ICntrl=     0 DoSepK=T KAlg= 1 I1Cent= 0 FoldK=F
 FoFJK:  IHMeth= 1 ICntrl=     0 DoSepK=T KAlg= 1 I1Cent= 0 FoldK=F
 Rare condition: small coef for last iteration:  0.000D+00
 FoFJK:  IHMeth= 1 ICntrl=     0 DoSepK=T KAlg= 1 I1Cent= 0 FoldK=F
 EnCoef did   100 forward-backward iterations
 FoFJK:  IHMeth= 1 ICntrl=     0 DoSepK=T KAlg= 1 I1Cent= 0 FoldK=F
 EnCoef did   100 forward-backward iterations
 Rare condition: small coef for last iteration: -0.236D-15
 FoFJK:  IHMeth= 1 ICntrl=     0 DoSepK=T KAlg= 1 I1Cent= 0 FoldK=F
 FoFJK:  IHMeth= 1 ICntrl=     0 DoSepK=T KAlg= 1 I1Cent= 0 FoldK=F
 Rare condition: small coef for last iteration:  0.000D+00
 FoFJK:  IHMeth= 1 ICntrl=     0 DoSepK=T KAlg= 1 I1Cent= 0 FoldK=F
 Matrix for removal  9 Erem= -94.1919824926730     Crem= 0.000D+00
 FoFJK:  IHMeth= 1 ICntrl=     0 DoSepK=T KAlg= 1 I1Cent= 0 FoldK=F
 FoFJK:  IHMeth= 1 ICntrl=     0 DoSepK=T KAlg= 1 I1Cent= 0 FoldK=F
 Rare condition: small coef for last iteration:  0.000D+00
 FoFJK:  IHMeth= 1 ICntrl=     0 DoSepK=T KAlg= 1 I1Cent= 0 FoldK=F
 FoFJK:  IHMeth= 1 ICntrl=     0 DoSepK=T KAlg= 1 I1Cent= 0 FoldK=F
 Rare condition: small coef for last iteration:  0.000D+00
 FoFJK:  IHMeth= 1 ICntrl=     0 DoSepK=T KAlg= 1 I1Cent= 0 FoldK=F
 FoFJK:  IHMeth= 1 ICntrl=     0 DoSepK=T KAlg= 1 I1Cent= 0 FoldK=F
 EnCoef did   100 forward-backward iterations
 FoFJK:  IHMeth= 1 ICntrl=     0 DoSepK=T KAlg= 1 I1Cent= 0 FoldK=F
 FoFJK:  IHMeth= 1 ICntrl=     0 DoSepK=T KAlg= 1 I1Cent= 0 FoldK=F
 Rare condition: small coef for last iteration:  0.000D+00
 Restarting incremental Fock formation.
 FoFJK:  IHMeth= 1 ICntrl=     0 DoSepK=T KAlg= 1 I1Cent= 0 FoldK=F
 EnCoef did   100 forward-backward iterations
 FoFJK:  IHMeth= 1 ICntrl=     0 DoSepK=T KAlg= 1 I1Cent= 0 FoldK=F
 FoFJK:  IHMeth= 1 ICntrl=     0 DoSepK=T KAlg= 1 I1Cent= 0 FoldK=F
 Rare condition: small coef for last iteration:  0.000D+00
 Matrix for removal 14 Erem= -94.1977806819129     Crem= 0.000D+00
 FoFJK:  IHMeth= 1 ICntrl=     0 DoSepK=T KAlg= 1 I1Cent= 0 FoldK=F
 Matrix for removal 11 Erem= -94.2265348312957     Crem= 0.000D+00
 FoFJK:  IHMeth= 1 ICntrl=     0 DoSepK=T KAlg= 1 I1Cent= 0 FoldK=F
 Rare condition: small coef for last iteration:  0.000D+00
 Matrix for removal 15 Erem= -94.2268412448718     Crem= 0.000D+00
 FoFJK:  IHMeth= 1 ICntrl=     0 DoSepK=T KAlg= 1 I1Cent= 0 FoldK=F
 Matrix for removal 13 Erem= -94.2271251967824     Crem= 0.000D+00
 FoFJK:  IHMeth= 1 ICntrl=     0 DoSepK=T KAlg= 1 I1Cent= 0 FoldK=F
 Matrix for removal 12 Erem= -94.2274330930578     Crem= 0.000D+00
 FoFJK:  IHMeth= 1 ICntrl=     0 DoSepK=T KAlg= 1 I1Cent= 0 FoldK=F
 Matrix for removal 13 Erem= -94.2275214459771     Crem= 0.000D+00
 FoFJK:  IHMeth= 1 ICntrl=     0 DoSepK=T KAlg= 1 I1Cent= 0 FoldK=F
 Rare condition: small coef for last iteration:  0.000D+00
 Matrix for removal 14 Erem= -94.2280566848705     Crem= 0.000D+00
 FoFJK:  IHMeth= 1 ICntrl=     0 DoSepK=T KAlg= 1 I1Cent= 0 FoldK=F
 Rare condition: small coef for last iteration:  0.000D+00
 FoFJK:  IHMeth= 1 ICntrl=     0 DoSepK=T KAlg= 1 I1Cent= 0 FoldK=F
 FoFJK:  IHMeth= 1 ICntrl=     0 DoSepK=T KAlg= 1 I1Cent= 0 FoldK=F
 FoFJK:  IHMeth= 1 ICntrl=     0 DoSepK=T KAlg= 1 I1Cent= 0 FoldK=F
 Rare condition: small coef for last iteration:  0.000D+00
 FoFJK:  IHMeth= 1 ICntrl=     0 DoSepK=T KAlg= 1 I1Cent= 0 FoldK=F
 FoFJK:  IHMeth= 1 ICntrl=     0 DoSepK=T KAlg= 1 I1Cent= 0 FoldK=F
 FoFJK:  IHMeth= 1 ICntrl=     0 DoSepK=T KAlg= 1 I1Cent= 0 FoldK=F
 Rare condition: small coef for last iteration:  0.000D+00
 FoFJK:  IHMeth= 1 ICntrl=     0 DoSepK=T KAlg= 1 I1Cent= 0 FoldK=F
 FoFJK:  IHMeth= 1 ICntrl=     0 DoSepK=T KAlg= 1 I1Cent= 0 FoldK=F
 FoFJK:  IHMeth= 1 ICntrl=     0 DoSepK=T KAlg= 1 I1Cent= 0 FoldK=F
 FoFJK:  IHMeth= 1 ICntrl=     0 DoSepK=T KAlg= 1 I1Cent= 0 FoldK=F
 Rare condition: small coef for last iteration:  0.000D+00
 Restarting incremental Fock formation.
 FoFJK:  IHMeth= 1 ICntrl=     0 DoSepK=T KAlg= 1 I1Cent= 0 FoldK=F
 Rare condition: small coef for last iteration:  0.000D+00
 FoFJK:  IHMeth= 1 ICntrl=     0 DoSepK=T KAlg= 1 I1Cent= 0 FoldK=F
 Rare condition: small coef for last iteration:  0.000D+00
 FoFJK:  IHMeth= 1 ICntrl=     0 DoSepK=T KAlg= 1 I1Cent= 0 FoldK=F
 Rare condition: small coef for last iteration:  0.000D+00
 Matrix for removal 19 Erem= -94.2293817774830     Crem= 0.000D+00
 FoFJK:  IHMeth= 1 ICntrl=     0 DoSepK=T KAlg= 1 I1Cent= 0 FoldK=F
 Rare condition: small coef for last iteration:  0.000D+00
 Matrix for removal 19 Erem= -94.2283157435883     Crem= 0.000D+00
 FoFJK:  IHMeth= 1 ICntrl=     0 DoSepK=T KAlg= 1 I1Cent= 0 FoldK=F
 Matrix for removal 19 Erem= -94.2274688506308     Crem= 0.000D+00
 FoFJK:  IHMeth= 1 ICntrl=     0 DoSepK=T KAlg= 1 I1Cent= 0 FoldK=F
 Matrix for removal 19 Erem= -94.2287726156892     Crem= 0.000D+00
 FoFJK:  IHMeth= 1 ICntrl=     0 DoSepK=T KAlg= 1 I1Cent= 0 FoldK=F
 Rare condition: small coef for last iteration:  0.000D+00
 Matrix for removal 19 Erem= -94.2288153800897     Crem= 0.000D+00
 FoFJK:  IHMeth= 1 ICntrl=     0 DoSepK=T KAlg= 1 I1Cent= 0 FoldK=F
 Rare condition: small coef for last iteration:  0.000D+00
 Matrix for removal 19 Erem= -94.2282228700025     Crem= 0.000D+00
 FoFJK:  IHMeth= 1 ICntrl=     0 DoSepK=T KAlg= 1 I1Cent= 0 FoldK=F
 Matrix for removal 19 Erem= -94.2271118321474     Crem= 0.000D+00
 FoFJK:  IHMeth= 1 ICntrl=     0 DoSepK=T KAlg= 1 I1Cent= 0 FoldK=F
 Rare condition: small coef for last iteration:  0.000D+00
 Matrix for removal 18 Erem= -94.2300618790033     Crem= 0.000D+00
 FoFJK:  IHMeth= 1 ICntrl=     0 DoSepK=T KAlg= 1 I1Cent= 0 FoldK=F
 Matrix for removal 10 Erem= -94.2301897138925     Crem= 0.000D+00
 FoFJK:  IHMeth= 1 ICntrl=     0 DoSepK=T KAlg= 1 I1Cent= 0 FoldK=F
 Matrix for removal 19 Erem= -94.2183624613904     Crem= 0.000D+00
 FoFJK:  IHMeth= 1 ICntrl=     0 DoSepK=T KAlg= 1 I1Cent= 0 FoldK=F
 Matrix for removal 18 Erem= -94.2263607776385     Crem= 0.000D+00
 FoFJK:  IHMeth= 1 ICntrl=     0 DoSepK=T KAlg= 1 I1Cent= 0 FoldK=F
 Matrix for removal 19 Erem= -94.2272573713213     Crem= 0.000D+00
 FoFJK:  IHMeth= 1 ICntrl=     0 DoSepK=T KAlg= 1 I1Cent= 0 FoldK=F
 Rare condition: small coef for last iteration:  0.000D+00
 Matrix for removal 19 Erem= -94.2295406548494     Crem= 0.000D+00
 FoFJK:  IHMeth= 1 ICntrl=     0 DoSepK=T KAlg= 1 I1Cent= 0 FoldK=F
 Matrix for removal 18 Erem= -94.2295406548494     Crem= 0.000D+00
 FoFJK:  IHMeth= 1 ICntrl=     0 DoSepK=T KAlg= 1 I1Cent= 0 FoldK=F
 EnCoef did   100 forward-backward iterations
 Matrix for removal 13 Erem= -94.2302133565348     Crem= 0.000D+00
 FoFJK:  IHMeth= 1 ICntrl=     0 DoSepK=T KAlg= 1 I1Cent= 0 FoldK=F
 EnCoef did   100 forward-backward iterations
 Matrix for removal 19 Erem= -94.2183729939451     Crem= 0.000D+00
 FoFJK:  IHMeth= 1 ICntrl=     0 DoSepK=T KAlg= 1 I1Cent= 0 FoldK=F
 Matrix for removal 18 Erem= -94.2265571648862     Crem= 0.000D+00
 FoFJK:  IHMeth= 1 ICntrl=     0 DoSepK=T KAlg= 1 I1Cent= 0 FoldK=F
 Rare condition: small coef for last iteration:  0.000D+00
 Matrix for removal 17 Erem= -94.2269008494463     Crem= 0.000D+00
 Restarting incremental Fock formation.
 FoFJK:  IHMeth= 1 ICntrl=     0 DoSepK=T KAlg= 1 I1Cent= 0 FoldK=F
 Matrix for removal 17 Erem= -94.2277299036435     Crem= 0.000D+00
 FoFJK:  IHMeth= 1 ICntrl=     0 DoSepK=T KAlg= 1 I1Cent= 0 FoldK=F
 Rare condition: small coef for last iteration:  0.000D+00
 FoFJK:  IHMeth= 1 ICntrl=     0 DoSepK=T KAlg= 1 I1Cent= 0 FoldK=F
 Rare condition: small coef for last iteration:  0.000D+00
 Matrix for removal 17 Erem= -94.2289694005789     Crem= 0.000D+00
 FoFJK:  IHMeth= 1 ICntrl=     0 DoSepK=T KAlg= 1 I1Cent= 0 FoldK=F
 Rare condition: small coef for last iteration:  0.000D+00
 Matrix for removal 19 Erem= -94.2283775307921     Crem= 0.000D+00
 FoFJK:  IHMeth= 1 ICntrl=     0 DoSepK=T KAlg= 1 I1Cent= 0 FoldK=F
 Matrix for removal 19 Erem= -94.2271915328172     Crem= 0.000D+00
 FoFJK:  IHMeth= 1 ICntrl=     0 DoSepK=T KAlg= 1 I1Cent= 0 FoldK=F
 Rare condition: small coef for last iteration:  0.000D+00
 Matrix for removal 18 Erem= -94.2291348404923     Crem= 0.000D+00
 FoFJK:  IHMeth= 1 ICntrl=     0 DoSepK=T KAlg= 1 I1Cent= 0 FoldK=F
 Rare condition: small coef for last iteration:  0.000D+00
 Matrix for removal 19 Erem= -94.2287747940066     Crem= 0.000D+00
 FoFJK:  IHMeth= 1 ICntrl=     0 DoSepK=T KAlg= 1 I1Cent= 0 FoldK=F
 Matrix for removal 19 Erem= -94.2287668474028     Crem= 0.000D+00
 FoFJK:  IHMeth= 1 ICntrl=     0 DoSepK=T KAlg= 1 I1Cent= 0 FoldK=F
 Rare condition: small coef for last iteration:  0.000D+00
 Matrix for removal 19 Erem= -94.2293334652776     Crem= 0.000D+00
 FoFJK:  IHMeth= 1 ICntrl=     0 DoSepK=T KAlg= 1 I1Cent= 0 FoldK=F
 Rare condition: small coef for last iteration:  0.000D+00
 Matrix for removal 19 Erem= -94.2278511163235     Crem= 0.000D+00
 FoFJK:  IHMeth= 1 ICntrl=     0 DoSepK=T KAlg= 1 I1Cent= 0 FoldK=F
 Matrix for removal 19 Erem= -94.2277815817828     Crem= 0.000D+00
 FoFJK:  IHMeth= 1 ICntrl=     0 DoSepK=T KAlg= 1 I1Cent= 0 FoldK=F
 Rare condition: small coef for last iteration:  0.000D+00
 Matrix for removal 19 Erem= -94.2291931568625     Crem= 0.000D+00
 FoFJK:  IHMeth= 1 ICntrl=     0 DoSepK=T KAlg= 1 I1Cent= 0 FoldK=F
 Rare condition: small coef for last iteration:  0.000D+00
 Matrix for removal 19 Erem= -94.2289622496156     Crem= 0.000D+00
 FoFJK:  IHMeth= 1 ICntrl=     0 DoSepK=T KAlg= 1 I1Cent= 0 FoldK=F
 Rare condition: small coef for last iteration:  0.000D+00
 Matrix for removal 19 Erem= -94.2288074508421     Crem= 0.000D+00
 FoFJK:  IHMeth= 1 ICntrl=     0 DoSepK=T KAlg= 1 I1Cent= 0 FoldK=F
 Rare condition: small coef for last iteration:  0.000D+00
 Matrix for removal 19 Erem= -94.2281239069624     Crem= 0.000D+00
 FoFJK:  IHMeth= 1 ICntrl=     0 DoSepK=T KAlg= 1 I1Cent= 0 FoldK=F
 Matrix for removal 19 Erem= -94.2280283147318     Crem= 0.000D+00
 FoFJK:  IHMeth= 1 ICntrl=     0 DoSepK=T KAlg= 1 I1Cent= 0 FoldK=F
 Rare condition: small coef for last iteration:  0.000D+00
 Matrix for removal 19 Erem= -94.2286970158505     Crem= 0.000D+00
 FoFJK:  IHMeth= 1 ICntrl=     0 DoSepK=T KAlg= 1 I1Cent= 0 FoldK=F
 Matrix for removal 19 Erem= -94.2280186739109     Crem= 0.000D+00
 FoFJK:  IHMeth= 1 ICntrl=     0 DoSepK=T KAlg= 1 I1Cent= 0 FoldK=F
 Matrix for removal 19 Erem= -94.2280214613776     Crem= 0.000D+00
 FoFJK:  IHMeth= 1 ICntrl=     0 DoSepK=T KAlg= 1 I1Cent= 0 FoldK=F
 Matrix for removal 19 Erem= -94.2289419658974     Crem= 0.000D+00
 Restarting incremental Fock formation.
 FoFJK:  IHMeth= 1 ICntrl=     0 DoSepK=T KAlg= 1 I1Cent= 0 FoldK=F
 Rare condition: small coef for last iteration:  0.000D+00
 Matrix for removal 19 Erem= -94.2290264981829     Crem= 0.000D+00
 FoFJK:  IHMeth= 1 ICntrl=     0 DoSepK=T KAlg= 1 I1Cent= 0 FoldK=F
 Rare condition: small coef for last iteration:  0.000D+00
 FoFJK:  IHMeth= 1 ICntrl=     0 DoSepK=T KAlg= 1 I1Cent= 0 FoldK=F
 FoFJK:  IHMeth= 1 ICntrl=     0 DoSepK=T KAlg= 1 I1Cent= 0 FoldK=F
 FoFJK:  IHMeth= 1 ICntrl=     0 DoSepK=T KAlg= 1 I1Cent= 0 FoldK=F
 Rare condition: small coef for last iteration:  0.000D+00
 FoFJK:  IHMeth= 1 ICntrl=     0 DoSepK=T KAlg= 1 I1Cent= 0 FoldK=F
 Rare condition: small coef for last iteration:  0.000D+00
 Matrix for removal 17 Erem= -94.2289025642742     Crem= 0.000D+00
 FoFJK:  IHMeth= 1 ICntrl=     0 DoSepK=T KAlg= 1 I1Cent= 0 FoldK=F
 FoFJK:  IHMeth= 1 ICntrl=     0 DoSepK=T KAlg= 1 I1Cent= 0 FoldK=F
 Rare condition: small coef for last iteration:  0.000D+00
 Matrix for removal 18 Erem= -94.2282924342492     Crem= 0.000D+00
 FoFJK:  IHMeth= 1 ICntrl=     0 DoSepK=T KAlg= 1 I1Cent= 0 FoldK=F
 Matrix for removal 18 Erem= -94.2284654747411     Crem= 0.000D+00
 FoFJK:  IHMeth= 1 ICntrl=     0 DoSepK=T KAlg= 1 I1Cent= 0 FoldK=F
 Matrix for removal 19 Erem= -94.2162019901748     Crem= 0.000D+00
 FoFJK:  IHMeth= 1 ICntrl=     0 DoSepK=T KAlg= 1 I1Cent= 0 FoldK=F
 Matrix for removal 18 Erem= -94.2256575808864     Crem= 0.000D+00
 FoFJK:  IHMeth= 1 ICntrl=     0 DoSepK=T KAlg= 1 I1Cent= 0 FoldK=F
 Matrix for removal 18 Erem= -94.2272318551707     Crem= 0.000D+00
 FoFJK:  IHMeth= 1 ICntrl=     0 DoSepK=T KAlg= 1 I1Cent= 0 FoldK=F
 Rare condition: small coef for last iteration:  0.000D+00
 Matrix for removal 18 Erem= -94.2272760138005     Crem= 0.000D+00
 FoFJK:  IHMeth= 1 ICntrl=     0 DoSepK=T KAlg= 1 I1Cent= 0 FoldK=F
 Rare condition: small coef for last iteration:  0.000D+00
 FoFJK:  IHMeth= 1 ICntrl=     0 DoSepK=T KAlg= 1 I1Cent= 0 FoldK=F
 Rare condition: small coef for last iteration:  0.000D+00
 Matrix for removal 19 Erem= -94.2270856809335     Crem= 0.000D+00
 FoFJK:  IHMeth= 1 ICntrl=     0 DoSepK=T KAlg= 1 I1Cent= 0 FoldK=F
 Matrix for removal 18 Erem= -94.2271256206921     Crem= 0.000D+00
 FoFJK:  IHMeth= 1 ICntrl=     0 DoSepK=T KAlg= 1 I1Cent= 0 FoldK=F
 Matrix for removal 19 Erem= -94.2159920097226     Crem= 0.000D+00
 FoFJK:  IHMeth= 1 ICntrl=     0 DoSepK=T KAlg= 1 I1Cent= 0 FoldK=F
 Matrix for removal 18 Erem= -94.2257600430616     Crem= 0.000D+00
 FoFJK:  IHMeth= 1 ICntrl=     0 DoSepK=T KAlg= 1 I1Cent= 0 FoldK=F
 Matrix for removal 18 Erem= -94.2272599420710     Crem= 0.000D+00
 FoFJK:  IHMeth= 1 ICntrl=     0 DoSepK=T KAlg= 1 I1Cent= 0 FoldK=F
 Rare condition: small coef for last iteration:  0.000D+00
 Matrix for removal 18 Erem= -94.2273453625335     Crem= 0.000D+00
 Restarting incremental Fock formation.
 FoFJK:  IHMeth= 1 ICntrl=     0 DoSepK=T KAlg= 1 I1Cent= 0 FoldK=F
 Rare condition: small coef for last iteration:  0.000D+00
 Matrix for removal 17 Erem= -94.2293111036988     Crem= 0.000D+00
 FoFJK:  IHMeth= 1 ICntrl=     0 DoSepK=T KAlg= 1 I1Cent= 0 FoldK=F
 Matrix for removal 19 Erem= -94.2289524222500     Crem= 0.000D+00
 FoFJK:  IHMeth= 1 ICntrl=     0 DoSepK=T KAlg= 1 I1Cent= 0 FoldK=F
 Rare condition: small coef for last iteration:  0.000D+00
 Matrix for removal 19 Erem= -94.2290112040531     Crem= 0.000D+00
 FoFJK:  IHMeth= 1 ICntrl=     0 DoSepK=T KAlg= 1 I1Cent= 0 FoldK=F
 Matrix for removal 19 Erem= -94.2283648765976     Crem= 0.000D+00
 FoFJK:  IHMeth= 1 ICntrl=     0 DoSepK=T KAlg= 1 I1Cent= 0 FoldK=F
 Matrix for removal 19 Erem= -94.2288023129360     Crem= 0.000D+00
 FoFJK:  IHMeth= 1 ICntrl=     0 DoSepK=T KAlg= 1 I1Cent= 0 FoldK=F
 Matrix for removal 19 Erem= -94.2289592525429     Crem= 0.000D+00
 FoFJK:  IHMeth= 1 ICntrl=     0 DoSepK=T KAlg= 1 I1Cent= 0 FoldK=F
 Rare condition: small coef for last iteration:  0.000D+00
 Matrix for removal 18 Erem= -94.2294772677771     Crem= 0.000D+00
 FoFJK:  IHMeth= 1 ICntrl=     0 DoSepK=T KAlg= 1 I1Cent= 0 FoldK=F
 Rare condition: small coef for last iteration:  0.000D+00
 FoFJK:  IHMeth= 1 ICntrl=     0 DoSepK=T KAlg= 1 I1Cent= 0 FoldK=F
 FoFJK:  IHMeth= 1 ICntrl=     0 DoSepK=T KAlg= 1 I1Cent= 0 FoldK=F
 Rare condition: small coef for last iteration:  0.000D+00
 Matrix for removal 18 Erem= -94.2285640933422     Crem= 0.000D+00
 FoFJK:  IHMeth= 1 ICntrl=     0 DoSepK=T KAlg= 1 I1Cent= 0 FoldK=F
 Matrix for removal 19 Erem= -94.2286644606331     Crem= 0.000D+00
 FoFJK:  IHMeth= 1 ICntrl=     0 DoSepK=T KAlg= 1 I1Cent= 0 FoldK=F
 Rare condition: small coef for last iteration:  0.000D+00
 Matrix for removal 18 Erem= -94.2289241745643     Crem= 0.000D+00
 FoFJK:  IHMeth= 1 ICntrl=     0 DoSepK=T KAlg= 1 I1Cent= 0 FoldK=F
 Rare condition: small coef for last iteration:  0.000D+00
 Matrix for removal 19 Erem= -94.2286488238261     Crem= 0.000D+00
 FoFJK:  IHMeth= 1 ICntrl=     0 DoSepK=T KAlg= 1 I1Cent= 0 FoldK=F
 Matrix for removal 19 Erem= -94.2284264294015     Crem= 0.000D+00
 FoFJK:  IHMeth= 1 ICntrl=     0 DoSepK=T KAlg= 1 I1Cent= 0 FoldK=F
 Rare condition: small coef for last iteration:  0.000D+00
 Matrix for removal 19 Erem= -94.2293742834055     Crem= 0.000D+00
 FoFJK:  IHMeth= 1 ICntrl=     0 DoSepK=T KAlg= 1 I1Cent= 0 FoldK=F
 Matrix for removal 19 Erem= -94.2284603209170     Crem= 0.000D+00
 FoFJK:  IHMeth= 1 ICntrl=     0 DoSepK=T KAlg= 1 I1Cent= 0 FoldK=F
 Matrix for removal 19 Erem= -94.2285172132284     Crem= 0.000D+00
 FoFJK:  IHMeth= 1 ICntrl=     0 DoSepK=T KAlg= 1 I1Cent= 0 FoldK=F
 Matrix for removal 19 Erem= -94.2292413812272     Crem= 0.000D+00
 FoFJK:  IHMeth= 1 ICntrl=     0 DoSepK=T KAlg= 1 I1Cent= 0 FoldK=F
 Rare condition: small coef for last iteration:  0.000D+00
 Matrix for removal 19 Erem= -94.2293172215656     Crem= 0.000D+00
 FoFJK:  IHMeth= 1 ICntrl=     0 DoSepK=T KAlg= 1 I1Cent= 0 FoldK=F
 Rare condition: small coef for last iteration:  0.000D+00
 Matrix for removal 19 Erem= -94.2290574068093     Crem= 0.000D+00
 Restarting incremental Fock formation.
 FoFJK:  IHMeth= 1 ICntrl=     0 DoSepK=T KAlg= 1 I1Cent= 0 FoldK=F
 Matrix for removal 19 Erem= -94.2287773752438     Crem= 0.000D+00
 FoFJK:  IHMeth= 1 ICntrl=     0 DoSepK=T KAlg= 1 I1Cent= 0 FoldK=F
 Rare condition: small coef for last iteration:  0.000D+00
 Matrix for removal 19 Erem= -94.2293064159090     Crem= 0.000D+00
 FoFJK:  IHMeth= 1 ICntrl=     0 DoSepK=T KAlg= 1 I1Cent= 0 FoldK=F
 Matrix for removal 19 Erem= -94.2284108632124     Crem= 0.000D+00
 FoFJK:  IHMeth= 1 ICntrl=     0 DoSepK=T KAlg= 1 I1Cent= 0 FoldK=F
 Matrix for removal 19 Erem= -94.2284384622457     Crem= 0.000D+00
 FoFJK:  IHMeth= 1 ICntrl=     0 DoSepK=T KAlg= 1 I1Cent= 0 FoldK=F
 Rare condition: small coef for last iteration:  0.000D+00
 Matrix for removal 19 Erem= -94.2292367473139     Crem= 0.000D+00
 FoFJK:  IHMeth= 1 ICntrl=     0 DoSepK=T KAlg= 1 I1Cent= 0 FoldK=F
 Rare condition: small coef for last iteration:  0.000D+00
 Matrix for removal 19 Erem= -94.2288652674712     Crem= 0.000D+00
 FoFJK:  IHMeth= 1 ICntrl=     0 DoSepK=T KAlg= 1 I1Cent= 0 FoldK=F
 Matrix for removal 19 Erem= -94.2288202553443     Crem= 0.000D+00
 FoFJK:  IHMeth= 1 ICntrl=     0 DoSepK=T KAlg= 1 I1Cent= 0 FoldK=F
 Rare condition: small coef for last iteration:  0.000D+00
 Matrix for removal 19 Erem= -94.2291017791670     Crem= 0.000D+00
 FoFJK:  IHMeth= 1 ICntrl=     0 DoSepK=T KAlg= 1 I1Cent= 0 FoldK=F
 Matrix for removal 19 Erem= -94.2285040001713     Crem= 0.000D+00
 FoFJK:  IHMeth= 1 ICntrl=     0 DoSepK=T KAlg= 1 I1Cent= 0 FoldK=F
 Matrix for removal 19 Erem= -94.2285084895211     Crem= 0.000D+00
 FoFJK:  IHMeth= 1 ICntrl=     0 DoSepK=T KAlg= 1 I1Cent= 0 FoldK=F
 Rare condition: small coef for last iteration:  0.000D+00
 Matrix for removal 19 Erem= -94.2291227264839     Crem= 0.000D+00
 FoFJK:  IHMeth= 1 ICntrl=     0 DoSepK=T KAlg= 1 I1Cent= 0 FoldK=F
 Rare condition: small coef for last iteration:  0.000D+00
 Matrix for removal 19 Erem= -94.2290598444723     Crem= 0.000D+00
 FoFJK:  IHMeth= 1 ICntrl=     0 DoSepK=T KAlg= 1 I1Cent= 0 FoldK=F
 Matrix for removal 19 Erem= -94.2288417029272     Crem= 0.000D+00
 FoFJK:  IHMeth= 1 ICntrl=     0 DoSepK=T KAlg= 1 I1Cent= 0 FoldK=F
 Rare condition: small coef for last iteration:  0.000D+00
 Matrix for removal 19 Erem= -94.2290113253615     Crem= 0.000D+00
 FoFJK:  IHMeth= 1 ICntrl=     0 DoSepK=T KAlg= 1 I1Cent= 0 FoldK=F
 Rare condition: small coef for last iteration:  0.000D+00
 Matrix for removal 19 Erem= -94.2285407274039     Crem= 0.000D+00
 FoFJK:  IHMeth= 1 ICntrl=     0 DoSepK=T KAlg= 1 I1Cent= 0 FoldK=F
 Matrix for removal 19 Erem= -94.2285184337227     Crem= 0.000D+00
 FoFJK:  IHMeth= 1 ICntrl=     0 DoSepK=T KAlg= 1 I1Cent= 0 FoldK=F
 Rare condition: small coef for last iteration:  0.000D+00
 Matrix for removal 19 Erem= -94.2290474679914     Crem= 0.000D+00
 FoFJK:  IHMeth= 1 ICntrl=     0 DoSepK=T KAlg= 1 I1Cent= 0 FoldK=F
 Matrix for removal 19 Erem= -94.2284749639277     Crem= 0.000D+00
 FoFJK:  IHMeth= 1 ICntrl=     0 DoSepK=T KAlg= 1 I1Cent= 0 FoldK=F
 Matrix for removal 19 Erem= -94.2285767107692     Crem= 0.000D+00
 FoFJK:  IHMeth= 1 ICntrl=     0 DoSepK=T KAlg= 1 I1Cent= 0 FoldK=F
 Matrix for removal 19 Erem= -94.2290579027409     Crem= 0.000D+00
 Restarting incremental Fock formation.
 FoFJK:  IHMeth= 1 ICntrl=     0 DoSepK=T KAlg= 1 I1Cent= 0 FoldK=F
 Rare condition: small coef for last iteration:  0.000D+00
 Matrix for removal 19 Erem= -94.2294770158129     Crem= 0.000D+00
 FoFJK:  IHMeth= 1 ICntrl=     0 DoSepK=T KAlg= 1 I1Cent= 0 FoldK=F
 Rare condition: small coef for last iteration:  0.000D+00
 Matrix for removal 19 Erem= -94.2290432706687     Crem= 0.000D+00
 FoFJK:  IHMeth= 1 ICntrl=     0 DoSepK=T KAlg= 1 I1Cent= 0 FoldK=F
 Matrix for removal 19 Erem= -94.2288473729414     Crem= 0.000D+00
 FoFJK:  IHMeth= 1 ICntrl=     0 DoSepK=T KAlg= 1 I1Cent= 0 FoldK=F
 Rare condition: small coef for last iteration:  0.000D+00
 Matrix for removal 19 Erem= -94.2292090642426     Crem= 0.000D+00
 FoFJK:  IHMeth= 1 ICntrl=     0 DoSepK=T KAlg= 1 I1Cent= 0 FoldK=F
 Matrix for removal 19 Erem= -94.2284441215542     Crem= 0.000D+00
 FoFJK:  IHMeth= 1 ICntrl=     0 DoSepK=T KAlg= 1 I1Cent= 0 FoldK=F
 Matrix for removal 19 Erem= -94.2284860512459     Crem= 0.000D+00
 FoFJK:  IHMeth= 1 ICntrl=     0 DoSepK=T KAlg= 1 I1Cent= 0 FoldK=F
 Matrix for removal 19 Erem= -94.2290554686404     Crem= 0.000D+00
 FoFJK:  IHMeth= 1 ICntrl=     0 DoSepK=T KAlg= 1 I1Cent= 0 FoldK=F
 Rare condition: small coef for last iteration:  0.000D+00
 Matrix for removal 19 Erem= -94.2290916881130     Crem= 0.000D+00
 FoFJK:  IHMeth= 1 ICntrl=     0 DoSepK=T KAlg= 1 I1Cent= 0 FoldK=F
 Rare condition: small coef for last iteration:  0.000D+00
 Matrix for removal 19 Erem= -94.2288865908435     Crem= 0.000D+00
 FoFJK:  IHMeth= 1 ICntrl=     0 DoSepK=T KAlg= 1 I1Cent= 0 FoldK=F
 Matrix for removal 19 Erem= -94.2287223657159     Crem= 0.000D+00
 FoFJK:  IHMeth= 1 ICntrl=     0 DoSepK=T KAlg= 1 I1Cent= 0 FoldK=F
 Rare condition: small coef for last iteration:  0.000D+00
 Matrix for removal 19 Erem= -94.2292682749034     Crem= 0.000D+00
 FoFJK:  IHMeth= 1 ICntrl=     0 DoSepK=T KAlg= 1 I1Cent= 0 FoldK=F
 Matrix for removal 19 Erem= -94.2284672534541     Crem= 0.000D+00
 FoFJK:  IHMeth= 1 ICntrl=     0 DoSepK=T KAlg= 1 I1Cent= 0 FoldK=F
 Matrix for removal 19 Erem= -94.2285266426964     Crem= 0.000D+00
 FoFJK:  IHMeth= 1 ICntrl=     0 DoSepK=T KAlg= 1 I1Cent= 0 FoldK=F
 Matrix for removal 19 Erem= -94.2290940126688     Crem= 0.000D+00
 FoFJK:  IHMeth= 1 ICntrl=     0 DoSepK=T KAlg= 1 I1Cent= 0 FoldK=F
 Rare condition: small coef for last iteration:  0.000D+00
 Matrix for removal 19 Erem= -94.2291432202359     Crem= 0.000D+00
 FoFJK:  IHMeth= 1 ICntrl=     0 DoSepK=T KAlg= 1 I1Cent= 0 FoldK=F
 Rare condition: small coef for last iteration:  0.000D+00
 Matrix for removal 19 Erem= -94.2288933075554     Crem= 0.000D+00
 FoFJK:  IHMeth= 1 ICntrl=     0 DoSepK=T KAlg= 1 I1Cent= 0 FoldK=F
 Matrix for removal 19 Erem= -94.2287215468852     Crem= 0.000D+00
 FoFJK:  IHMeth= 1 ICntrl=     0 DoSepK=T KAlg= 1 I1Cent= 0 FoldK=F
 Rare condition: small coef for last iteration:  0.000D+00
 Matrix for removal 19 Erem= -94.2292389254583     Crem= 0.000D+00
 FoFJK:  IHMeth= 1 ICntrl=     0 DoSepK=T KAlg= 1 I1Cent= 0 FoldK=F
 Matrix for removal 19 Erem= -94.2284611633597     Crem= 0.000D+00
 FoFJK:  IHMeth= 1 ICntrl=     0 DoSepK=T KAlg= 1 I1Cent= 0 FoldK=F
 Matrix for removal 19 Erem= -94.2285288711998     Crem= 0.000D+00
 Restarting incremental Fock formation.
 FoFJK:  IHMeth= 1 ICntrl=     0 DoSepK=T KAlg= 1 I1Cent= 0 FoldK=F
 Matrix for removal 19 Erem= -94.2290802822335     Crem= 0.000D+00
 FoFJK:  IHMeth= 1 ICntrl=     0 DoSepK=T KAlg= 1 I1Cent= 0 FoldK=F
 Rare condition: small coef for last iteration:  0.000D+00
 Matrix for removal 19 Erem= -94.2291647769751     Crem= 0.000D+00
 FoFJK:  IHMeth= 1 ICntrl=     0 DoSepK=T KAlg= 1 I1Cent= 0 FoldK=F
 Rare condition: small coef for last iteration:  0.000D+00
 Matrix for removal 19 Erem= -94.2288950001627     Crem= 0.000D+00
 FoFJK:  IHMeth= 1 ICntrl=     0 DoSepK=T KAlg= 1 I1Cent= 0 FoldK=F
 Matrix for removal 19 Erem= -94.2287246921134     Crem= 0.000D+00
 FoFJK:  IHMeth= 1 ICntrl=     0 DoSepK=T KAlg= 1 I1Cent= 0 FoldK=F
 Rare condition: small coef for last iteration:  0.000D+00
 Matrix for removal 19 Erem= -94.2292254157542     Crem= 0.000D+00
 FoFJK:  IHMeth= 1 ICntrl=     0 DoSepK=T KAlg= 1 I1Cent= 0 FoldK=F
 Matrix for removal 19 Erem= -94.2284590988247     Crem= 0.000D+00
 FoFJK:  IHMeth= 1 ICntrl=     0 DoSepK=T KAlg= 1 I1Cent= 0 FoldK=F
 Matrix for removal 19 Erem= -94.2285292399734     Crem= 0.000D+00
 FoFJK:  IHMeth= 1 ICntrl=     0 DoSepK=T KAlg= 1 I1Cent= 0 FoldK=F
 Matrix for removal 19 Erem= -94.2290775985145     Crem= 0.000D+00
 FoFJK:  IHMeth= 1 ICntrl=     0 DoSepK=T KAlg= 1 I1Cent= 0 FoldK=F
 Rare condition: small coef for last iteration:  0.000D+00
 Matrix for removal 19 Erem= -94.2291799015035     Crem= 0.000D+00
 FoFJK:  IHMeth= 1 ICntrl=     0 DoSepK=T KAlg= 1 I1Cent= 0 FoldK=F
 Rare condition: small coef for last iteration:  0.000D+00
 Matrix for removal 19 Erem= -94.2289008812983     Crem= 0.000D+00
 FoFJK:  IHMeth= 1 ICntrl=     0 DoSepK=T KAlg= 1 I1Cent= 0 FoldK=F
 Matrix for removal 19 Erem= -94.2287317830988     Crem= 0.000D+00
 FoFJK:  IHMeth= 1 ICntrl=     0 DoSepK=T KAlg= 1 I1Cent= 0 FoldK=F
 Rare condition: small coef for last iteration:  0.000D+00
 Matrix for removal 19 Erem= -94.2292151902834     Crem= 0.000D+00
 FoFJK:  IHMeth= 1 ICntrl=     0 DoSepK=T KAlg= 1 I1Cent= 0 FoldK=F
 Matrix for removal 19 Erem= -94.2284577147170     Crem= 0.000D+00
 FoFJK:  IHMeth= 1 ICntrl=     0 DoSepK=T KAlg= 1 I1Cent= 0 FoldK=F
 Matrix for removal 19 Erem= -94.2285285909694     Crem= 0.000D+00
 FoFJK:  IHMeth= 1 ICntrl=     0 DoSepK=T KAlg= 1 I1Cent= 0 FoldK=F
 Matrix for removal 19 Erem= -94.2290743072459     Crem= 0.000D+00
 FoFJK:  IHMeth= 1 ICntrl=     0 DoSepK=T KAlg= 1 I1Cent= 0 FoldK=F
 Rare condition: small coef for last iteration:  0.000D+00
 Matrix for removal 19 Erem= -94.2291841765629     Crem= 0.000D+00
 FoFJK:  IHMeth= 1 ICntrl=     0 DoSepK=T KAlg= 1 I1Cent= 0 FoldK=F
 Rare condition: small coef for last iteration:  0.000D+00
 Matrix for removal 19 Erem= -94.2289030225463     Crem= 0.000D+00
 FoFJK:  IHMeth= 1 ICntrl=     0 DoSepK=T KAlg= 1 I1Cent= 0 FoldK=F
 Matrix for removal 19 Erem= -94.2287353398968     Crem= 0.000D+00
 FoFJK:  IHMeth= 1 ICntrl=     0 DoSepK=T KAlg= 1 I1Cent= 0 FoldK=F
 Rare condition: small coef for last iteration:  0.000D+00
 Matrix for removal 19 Erem= -94.2292113609141     Crem= 0.000D+00
 FoFJK:  IHMeth= 1 ICntrl=     0 DoSepK=T KAlg= 1 I1Cent= 0 FoldK=F
 Matrix for removal 19 Erem= -94.2284575033656     Crem= 0.000D+00
 Restarting incremental Fock formation.
 FoFJK:  IHMeth= 1 ICntrl=     0 DoSepK=T KAlg= 1 I1Cent= 0 FoldK=F
 Matrix for removal 19 Erem= -94.2285281786362     Crem= 0.000D+00
 FoFJK:  IHMeth= 1 ICntrl=     0 DoSepK=T KAlg= 1 I1Cent= 0 FoldK=F
 Matrix for removal 19 Erem= -94.2290730607387     Crem= 0.000D+00
 FoFJK:  IHMeth= 1 ICntrl=     0 DoSepK=T KAlg= 1 I1Cent= 0 FoldK=F
 Rare condition: small coef for last iteration:  0.000D+00
 Matrix for removal 19 Erem= -94.2291846000590     Crem= 0.000D+00
 FoFJK:  IHMeth= 1 ICntrl=     0 DoSepK=T KAlg= 1 I1Cent= 0 FoldK=F
 Rare condition: small coef for last iteration:  0.000D+00
 Matrix for removal 19 Erem= -94.2289036980787     Crem= 0.000D+00
 FoFJK:  IHMeth= 1 ICntrl=     0 DoSepK=T KAlg= 1 I1Cent= 0 FoldK=F
 Matrix for removal 19 Erem= -94.2287367295291     Crem= 0.000D+00
 FoFJK:  IHMeth= 1 ICntrl=     0 DoSepK=T KAlg= 1 I1Cent= 0 FoldK=F
 Rare condition: small coef for last iteration:  0.000D+00
 Matrix for removal 19 Erem= -94.2292106058320     Crem= 0.000D+00
 FoFJK:  IHMeth= 1 ICntrl=     0 DoSepK=T KAlg= 1 I1Cent= 0 FoldK=F
 Matrix for removal 19 Erem= -94.2284576604870     Crem= 0.000D+00
 FoFJK:  IHMeth= 1 ICntrl=     0 DoSepK=T KAlg= 1 I1Cent= 0 FoldK=F
 Matrix for removal 19 Erem= -94.2285280136898     Crem= 0.000D+00
 FoFJK:  IHMeth= 1 ICntrl=     0 DoSepK=T KAlg= 1 I1Cent= 0 FoldK=F
 Matrix for removal 19 Erem= -94.2290727027880     Crem= 0.000D+00
 FoFJK:  IHMeth= 1 ICntrl=     0 DoSepK=T KAlg= 1 I1Cent= 0 FoldK=F
 Rare condition: small coef for last iteration:  0.000D+00
 Matrix for removal 19 Erem= -94.2291837686239     Crem= 0.000D+00
 FoFJK:  IHMeth= 1 ICntrl=     0 DoSepK=T KAlg= 1 I1Cent= 0 FoldK=F
 Rare condition: small coef for last iteration:  0.000D+00
 Matrix for removal 19 Erem= -94.2289035881851     Crem= 0.000D+00
 FoFJK:  IHMeth= 1 ICntrl=     0 DoSepK=T KAlg= 1 I1Cent= 0 FoldK=F
 Matrix for removal 19 Erem= -94.2287369266467     Crem= 0.000D+00
 FoFJK:  IHMeth= 1 ICntrl=     0 DoSepK=T KAlg= 1 I1Cent= 0 FoldK=F
 Rare condition: small coef for last iteration:  0.000D+00
 Matrix for removal 19 Erem= -94.2292110799270     Crem= 0.000D+00
 FoFJK:  IHMeth= 1 ICntrl=     0 DoSepK=T KAlg= 1 I1Cent= 0 FoldK=F
 Matrix for removal 19 Erem= -94.2284579052318     Crem= 0.000D+00
 FoFJK:  IHMeth= 1 ICntrl=     0 DoSepK=T KAlg= 1 I1Cent= 0 FoldK=F
 Matrix for removal 19 Erem= -94.2285279911335     Crem= 0.000D+00
 FoFJK:  IHMeth= 1 ICntrl=     0 DoSepK=T KAlg= 1 I1Cent= 0 FoldK=F
 Matrix for removal 19 Erem= -94.2290727652951     Crem= 0.000D+00
 FoFJK:  IHMeth= 1 ICntrl=     0 DoSepK=T KAlg= 1 I1Cent= 0 FoldK=F
 Rare condition: small coef for last iteration:  0.000D+00
 Matrix for removal 19 Erem= -94.2291829551885     Crem= 0.000D+00
 FoFJK:  IHMeth= 1 ICntrl=     0 DoSepK=T KAlg= 1 I1Cent= 0 FoldK=F
 Rare condition: small coef for last iteration:  0.000D+00
 Matrix for removal 19 Erem= -94.2289033499712     Crem= 0.000D+00
 FoFJK:  IHMeth= 1 ICntrl=     0 DoSepK=T KAlg= 1 I1Cent= 0 FoldK=F
 Matrix for removal 19 Erem= -94.2287367708537     Crem= 0.000D+00
 FoFJK:  IHMeth= 1 ICntrl=     0 DoSepK=T KAlg= 1 I1Cent= 0 FoldK=F
 Rare condition: small coef for last iteration:  0.000D+00
 Matrix for removal 19 Erem= -94.2292116574248     Crem= 0.000D+00
 Restarting incremental Fock formation.
 FoFJK:  IHMeth= 1 ICntrl=     0 DoSepK=T KAlg= 1 I1Cent= 0 FoldK=F
 Matrix for removal 19 Erem= -94.2284580898029     Crem= 0.000D+00
 FoFJK:  IHMeth= 1 ICntrl=     0 DoSepK=T KAlg= 1 I1Cent= 0 FoldK=F
 Matrix for removal 19 Erem= -94.2285280448736     Crem= 0.000D+00
 FoFJK:  IHMeth= 1 ICntrl=     0 DoSepK=T KAlg= 1 I1Cent= 0 FoldK=F
 Matrix for removal 19 Erem= -94.2290728589016     Crem= 0.000D+00
 FoFJK:  IHMeth= 1 ICntrl=     0 DoSepK=T KAlg= 1 I1Cent= 0 FoldK=F
 Rare condition: small coef for last iteration:  0.000D+00
 Matrix for removal 19 Erem= -94.2291824306642     Crem= 0.000D+00
 FoFJK:  IHMeth= 1 ICntrl=     0 DoSepK=T KAlg= 1 I1Cent= 0 FoldK=F
 Rare condition: small coef for last iteration:  0.000D+00
 Matrix for removal 19 Erem= -94.2289031216915     Crem= 0.000D+00
 FoFJK:  IHMeth= 1 ICntrl=     0 DoSepK=T KAlg= 1 I1Cent= 0 FoldK=F
 Matrix for removal 19 Erem= -94.2287365633010     Crem= 0.000D+00
 FoFJK:  IHMeth= 1 ICntrl=     0 DoSepK=T KAlg= 1 I1Cent= 0 FoldK=F
 Rare condition: small coef for last iteration:  0.000D+00
 Matrix for removal 19 Erem= -94.2292120831091     Crem= 0.000D+00
 FoFJK:  IHMeth= 1 ICntrl=     0 DoSepK=T KAlg= 1 I1Cent= 0 FoldK=F
 Matrix for removal 19 Erem= -94.2284582147528     Crem= 0.000D+00
 FoFJK:  IHMeth= 1 ICntrl=     0 DoSepK=T KAlg= 1 I1Cent= 0 FoldK=F
 Matrix for removal 19 Erem= -94.2285281073375     Crem= 0.000D+00
 FoFJK:  IHMeth= 1 ICntrl=     0 DoSepK=T KAlg= 1 I1Cent= 0 FoldK=F
 Matrix for removal 19 Erem= -94.2290729355407     Crem= 0.000D+00
 FoFJK:  IHMeth= 1 ICntrl=     0 DoSepK=T KAlg= 1 I1Cent= 0 FoldK=F
 Rare condition: small coef for last iteration:  0.000D+00
 Matrix for removal 19 Erem= -94.2291822089529     Crem= 0.000D+00
 FoFJK:  IHMeth= 1 ICntrl=     0 DoSepK=T KAlg= 1 I1Cent= 0 FoldK=F
 Rare condition: small coef for last iteration:  0.000D+00
 Matrix for removal 19 Erem= -94.2289030190877     Crem= 0.000D+00
 FoFJK:  IHMeth= 1 ICntrl=     0 DoSepK=T KAlg= 1 I1Cent= 0 FoldK=F
 Matrix for removal 19 Erem= -94.2287364650169     Crem= 0.000D+00
 FoFJK:  IHMeth= 1 ICntrl=     0 DoSepK=T KAlg= 1 I1Cent= 0 FoldK=F
 Rare condition: small coef for last iteration:  0.000D+00
 Matrix for removal 19 Erem= -94.2292122466265     Crem= 0.000D+00
 FoFJK:  IHMeth= 1 ICntrl=     0 DoSepK=T KAlg= 1 I1Cent= 0 FoldK=F
 Matrix for removal 19 Erem= -94.2284582828548     Crem= 0.000D+00
 FoFJK:  IHMeth= 1 ICntrl=     0 DoSepK=T KAlg= 1 I1Cent= 0 FoldK=F
 Matrix for removal 19 Erem= -94.2285281769379     Crem= 0.000D+00
 FoFJK:  IHMeth= 1 ICntrl=     0 DoSepK=T KAlg= 1 I1Cent= 0 FoldK=F
 Matrix for removal 19 Erem= -94.2290729248431     Crem= 0.000D+00
 FoFJK:  IHMeth= 1 ICntrl=     0 DoSepK=T KAlg= 1 I1Cent= 0 FoldK=F
 Rare condition: small coef for last iteration:  0.000D+00
 Matrix for removal 19 Erem= -94.2291821186415     Crem= 0.000D+00
 FoFJK:  IHMeth= 1 ICntrl=     0 DoSepK=T KAlg= 1 I1Cent= 0 FoldK=F
 Rare condition: small coef for last iteration:  0.000D+00
 Matrix for removal 19 Erem= -94.2289029282878     Crem= 0.000D+00
 FoFJK:  IHMeth= 1 ICntrl=     0 DoSepK=T KAlg= 1 I1Cent= 0 FoldK=F
 Matrix for removal 19 Erem= -94.2287363976189     Crem= 0.000D+00
 Restarting incremental Fock formation.
 FoFJK:  IHMeth= 1 ICntrl=     0 DoSepK=T KAlg= 1 I1Cent= 0 FoldK=F
 Rare condition: small coef for last iteration:  0.000D+00
 Matrix for removal 19 Erem= -94.2292123580120     Crem= 0.000D+00
 FoFJK:  IHMeth= 1 ICntrl=     0 DoSepK=T KAlg= 1 I1Cent= 0 FoldK=F
 Matrix for removal 19 Erem= -94.2284583349994     Crem= 0.000D+00
 FoFJK:  IHMeth= 1 ICntrl=     0 DoSepK=T KAlg= 1 I1Cent= 0 FoldK=F
 Matrix for removal 19 Erem= -94.2285282131976     Crem= 0.000D+00
 FoFJK:  IHMeth= 1 ICntrl=     0 DoSepK=T KAlg= 1 I1Cent= 0 FoldK=F
 Matrix for removal 19 Erem= -94.2290729361929     Crem= 0.000D+00
 FoFJK:  IHMeth= 1 ICntrl=     0 DoSepK=T KAlg= 1 I1Cent= 0 FoldK=F
 Rare condition: small coef for last iteration:  0.000D+00
 Matrix for removal 19 Erem= -94.2291820806222     Crem= 0.000D+00
 FoFJK:  IHMeth= 1 ICntrl=     0 DoSepK=T KAlg= 1 I1Cent= 0 FoldK=F
 Rare condition: small coef for last iteration:  0.000D+00
 Matrix for removal 19 Erem= -94.2289028932676     Crem= 0.000D+00
 FoFJK:  IHMeth= 1 ICntrl=     0 DoSepK=T KAlg= 1 I1Cent= 0 FoldK=F
 Matrix for removal 19 Erem= -94.2287363736737     Crem= 0.000D+00
 FoFJK:  IHMeth= 1 ICntrl=     0 DoSepK=T KAlg= 1 I1Cent= 0 FoldK=F
 Rare condition: small coef for last iteration:  0.000D+00
 Matrix for removal 19 Erem= -94.2292124246474     Crem= 0.000D+00
 FoFJK:  IHMeth= 1 ICntrl=     0 DoSepK=T KAlg= 1 I1Cent= 0 FoldK=F
 Matrix for removal 19 Erem= -94.2284583662113     Crem= 0.000D+00
 FoFJK:  IHMeth= 1 ICntrl=     0 DoSepK=T KAlg= 1 I1Cent= 0 FoldK=F
 Matrix for removal 19 Erem= -94.2285282331160     Crem= 0.000D+00
 FoFJK:  IHMeth= 1 ICntrl=     0 DoSepK=T KAlg= 1 I1Cent= 0 FoldK=F
 Matrix for removal 19 Erem= -94.2290729361536     Crem= 0.000D+00
 FoFJK:  IHMeth= 1 ICntrl=     0 DoSepK=T KAlg= 1 I1Cent= 0 FoldK=F
 Rare condition: small coef for last iteration:  0.000D+00
 Matrix for removal 19 Erem= -94.2291820403180     Crem= 0.000D+00
 FoFJK:  IHMeth= 1 ICntrl=     0 DoSepK=T KAlg= 1 I1Cent= 0 FoldK=F
 Rare condition: small coef for last iteration:  0.000D+00
 Matrix for removal 19 Erem= -94.2289028654001     Crem= 0.000D+00
 FoFJK:  IHMeth= 1 ICntrl=     0 DoSepK=T KAlg= 1 I1Cent= 0 FoldK=F
 Matrix for removal 19 Erem= -94.2287363570921     Crem= 0.000D+00
 FoFJK:  IHMeth= 1 ICntrl=     0 DoSepK=T KAlg= 1 I1Cent= 0 FoldK=F
 Rare condition: small coef for last iteration:  0.000D+00
 Matrix for removal 19 Erem= -94.2292124757665     Crem= 0.000D+00
 FoFJK:  IHMeth= 1 ICntrl=     0 DoSepK=T KAlg= 1 I1Cent= 0 FoldK=F
 Matrix for removal 19 Erem= -94.2284583899433     Crem= 0.000D+00
 FoFJK:  IHMeth= 1 ICntrl=     0 DoSepK=T KAlg= 1 I1Cent= 0 FoldK=F
 Matrix for removal 19 Erem= -94.2285282469551     Crem= 0.000D+00
 FoFJK:  IHMeth= 1 ICntrl=     0 DoSepK=T KAlg= 1 I1Cent= 0 FoldK=F
 Matrix for removal 19 Erem= -94.2290729372339     Crem= 0.000D+00
 FoFJK:  IHMeth= 1 ICntrl=     0 DoSepK=T KAlg= 1 I1Cent= 0 FoldK=F
 Rare condition: small coef for last iteration:  0.000D+00
 Matrix for removal 19 Erem= -94.2291820059256     Crem= 0.000D+00
 FoFJK:  IHMeth= 1 ICntrl=     0 DoSepK=T KAlg= 1 I1Cent= 0 FoldK=F
 Rare condition: small coef for last iteration:  0.000D+00
 Matrix for removal 19 Erem= -94.2289028445018     Crem= 0.000D+00
 Restarting incremental Fock formation.
 FoFJK:  IHMeth= 1 ICntrl=     0 DoSepK=T KAlg= 1 I1Cent= 0 FoldK=F
 Matrix for removal 19 Erem= -94.2287363448603     Crem= 0.000D+00
 FoFJK:  IHMeth= 1 ICntrl=     0 DoSepK=T KAlg= 1 I1Cent= 0 FoldK=F
 Rare condition: small coef for last iteration:  0.000D+00
 Matrix for removal 19 Erem= -94.2292125160184     Crem= 0.000D+00
 FoFJK:  IHMeth= 1 ICntrl=     0 DoSepK=T KAlg= 1 I1Cent= 0 FoldK=F
 Matrix for removal 19 Erem= -94.2284584081144     Crem= 0.000D+00
 FoFJK:  IHMeth= 1 ICntrl=     0 DoSepK=T KAlg= 1 I1Cent= 0 FoldK=F
 Matrix for removal 19 Erem= -94.2285282570828     Crem= 0.000D+00
 FoFJK:  IHMeth= 1 ICntrl=     0 DoSepK=T KAlg= 1 I1Cent= 0 FoldK=F
 Matrix for removal 19 Erem= -94.2290729384162     Crem= 0.000D+00
 FoFJK:  IHMeth= 1 ICntrl=     0 DoSepK=T KAlg= 1 I1Cent= 0 FoldK=F
 Rare condition: small coef for last iteration:  0.000D+00
 Matrix for removal 19 Erem= -94.2291819770812     Crem= 0.000D+00
 FoFJK:  IHMeth= 1 ICntrl=     0 DoSepK=T KAlg= 1 I1Cent= 0 FoldK=F
 Rare condition: small coef for last iteration:  0.000D+00
 Matrix for removal 19 Erem= -94.2289028278796     Crem= 0.000D+00
 FoFJK:  IHMeth= 1 ICntrl=     0 DoSepK=T KAlg= 1 I1Cent= 0 FoldK=F
 Matrix for removal 19 Erem= -94.2287363347484     Crem= 0.000D+00
 FoFJK:  IHMeth= 1 ICntrl=     0 DoSepK=T KAlg= 1 I1Cent= 0 FoldK=F
 Rare condition: small coef for last iteration:  0.000D+00
 Matrix for removal 19 Erem= -94.2292125481164     Crem= 0.000D+00
 FoFJK:  IHMeth= 1 ICntrl=     0 DoSepK=T KAlg= 1 I1Cent= 0 FoldK=F
 Matrix for removal 19 Erem= -94.2284584221231     Crem= 0.000D+00
 FoFJK:  IHMeth= 1 ICntrl=     0 DoSepK=T KAlg= 1 I1Cent= 0 FoldK=F
 Matrix for removal 19 Erem= -94.2285282647397     Crem= 0.000D+00
 FoFJK:  IHMeth= 1 ICntrl=     0 DoSepK=T KAlg= 1 I1Cent= 0 FoldK=F
 Matrix for removal 19 Erem= -94.2290729399194     Crem= 0.000D+00
 FoFJK:  IHMeth= 1 ICntrl=     0 DoSepK=T KAlg= 1 I1Cent= 0 FoldK=F
 Rare condition: small coef for last iteration:  0.000D+00
 Matrix for removal 19 Erem= -94.2291819543466     Crem= 0.000D+00
 FoFJK:  IHMeth= 1 ICntrl=     0 DoSepK=T KAlg= 1 I1Cent= 0 FoldK=F
 Rare condition: small coef for last iteration:  0.000D+00
 Matrix for removal 19 Erem= -94.2289028149294     Crem= 0.000D+00
 FoFJK:  IHMeth= 1 ICntrl=     0 DoSepK=T KAlg= 1 I1Cent= 0 FoldK=F
 Matrix for removal 19 Erem= -94.2287363264535     Crem= 0.000D+00
 FoFJK:  IHMeth= 1 ICntrl=     0 DoSepK=T KAlg= 1 I1Cent= 0 FoldK=F
 Rare condition: small coef for last iteration:  0.000D+00
 Matrix for removal 19 Erem= -94.2292125730690     Crem= 0.000D+00
 FoFJK:  IHMeth= 1 ICntrl=     0 DoSepK=T KAlg= 1 I1Cent= 0 FoldK=F
 Matrix for removal 19 Erem= -94.2284584327225     Crem= 0.000D+00
 FoFJK:  IHMeth= 1 ICntrl=     0 DoSepK=T KAlg= 1 I1Cent= 0 FoldK=F
 Matrix for removal 19 Erem= -94.2285282705677     Crem= 0.000D+00
 FoFJK:  IHMeth= 1 ICntrl=     0 DoSepK=T KAlg= 1 I1Cent= 0 FoldK=F
 Matrix for removal 19 Erem= -94.2290729412636     Crem= 0.000D+00
 FoFJK:  IHMeth= 1 ICntrl=     0 DoSepK=T KAlg= 1 I1Cent= 0 FoldK=F
 Rare condition: small coef for last iteration:  0.000D+00
 Matrix for removal 19 Erem= -94.2291819368731     Crem= 0.000D+00
 Restarting incremental Fock formation.
 FoFJK:  IHMeth= 1 ICntrl=     0 DoSepK=T KAlg= 1 I1Cent= 0 FoldK=F
 Rare condition: small coef for last iteration:  0.000D+00
 Matrix for removal 19 Erem= -94.2289028049547     Crem= 0.000D+00
 FoFJK:  IHMeth= 1 ICntrl=     0 DoSepK=T KAlg= 1 I1Cent= 0 FoldK=F
 Matrix for removal 19 Erem= -94.2287363198660     Crem= 0.000D+00
 FoFJK:  IHMeth= 1 ICntrl=     0 DoSepK=T KAlg= 1 I1Cent= 0 FoldK=F
 Rare condition: small coef for last iteration:  0.000D+00
 Matrix for removal 19 Erem= -94.2292125921477     Crem= 0.000D+00
 FoFJK:  IHMeth= 1 ICntrl=     0 DoSepK=T KAlg= 1 I1Cent= 0 FoldK=F
 Matrix for removal 19 Erem= -94.2284584407104     Crem= 0.000D+00
 FoFJK:  IHMeth= 1 ICntrl=     0 DoSepK=T KAlg= 1 I1Cent= 0 FoldK=F
 Matrix for removal 19 Erem= -94.2285282750092     Crem= 0.000D+00
 FoFJK:  IHMeth= 1 ICntrl=     0 DoSepK=T KAlg= 1 I1Cent= 0 FoldK=F
 Matrix for removal 19 Erem= -94.2290729423876     Crem= 0.000D+00
 FoFJK:  IHMeth= 1 ICntrl=     0 DoSepK=T KAlg= 1 I1Cent= 0 FoldK=F
 Rare condition: small coef for last iteration:  0.000D+00
 Matrix for removal 19 Erem= -94.2291819237696     Crem= 0.000D+00
 FoFJK:  IHMeth= 1 ICntrl=     0 DoSepK=T KAlg= 1 I1Cent= 0 FoldK=F
 Rare condition: small coef for last iteration:  0.000D+00
 Matrix for removal 19 Erem= -94.2289027974306     Crem= 0.000D+00
[...]
 FoFJK:  IHMeth= 1 ICntrl=     0 DoSepK=T KAlg= 1 I1Cent= 0 FoldK=F
 Matrix for removal 19 Erem= -94.2287362998122     Crem= 0.000D+00
 FoFJK:  IHMeth= 1 ICntrl=     0 DoSepK=T KAlg= 1 I1Cent= 0 FoldK=F
 Rare condition: small coef for last iteration:  0.000D+00
 Matrix for removal 19 Erem= -94.2292126491450     Crem= 0.000D+00
 FoFJK:  IHMeth= 1 ICntrl=     0 DoSepK=T KAlg= 1 I1Cent= 0 FoldK=F
 Matrix for removal 19 Erem= -94.2284584642905     Crem= 0.000D+00
 FoFJK:  IHMeth= 1 ICntrl=     0 DoSepK=T KAlg= 1 I1Cent= 0 FoldK=F
 Matrix for removal 19 Erem= -94.2285282882095     Crem= 0.000D+00
 FoFJK:  IHMeth= 1 ICntrl=     0 DoSepK=T KAlg= 1 I1Cent= 0 FoldK=F
 Matrix for removal 19 Erem= -94.2290729458248     Crem= 0.000D+00
 FoFJK:  IHMeth= 1 ICntrl=     0 DoSepK=T KAlg= 1 I1Cent= 0 FoldK=F
 Rare condition: small coef for last iteration:  0.000D+00
 Matrix for removal 19 Erem= -94.2291818851974     Crem= 0.000D+00
 FoFJK:  IHMeth= 1 ICntrl=     0 DoSepK=T KAlg= 1 I1Cent= 0 FoldK=F
 Rare condition: small coef for last iteration:  0.000D+00
 Matrix for removal 19 Erem= -94.2289027750809     Crem= 0.000D+00
 FoFJK:  IHMeth= 1 ICntrl=     0 DoSepK=T KAlg= 1 I1Cent= 0 FoldK=F
 Matrix for removal 19 Erem= -94.2287362996899     Crem= 0.000D+00
 FoFJK:  IHMeth= 1 ICntrl=     0 DoSepK=T KAlg= 1 I1Cent= 0 FoldK=F
 Rare condition: small coef for last iteration:  0.000D+00
 Matrix for removal 19 Erem= -94.2292126490531     Crem= 0.000D+00
 FoFJK:  IHMeth= 1 ICntrl=     0 DoSepK=T KAlg= 1 I1Cent= 0 FoldK=F
 Matrix for removal 19 Erem= -94.2284584643235     Crem= 0.000D+00
 FoFJK:  IHMeth= 1 ICntrl=     0 DoSepK=T KAlg= 1 I1Cent= 0 FoldK=F
 Matrix for removal 19 Erem= -94.2285282882597     Crem= 0.000D+00
 FoFJK:  IHMeth= 1 ICntrl=     0 DoSepK=T KAlg= 1 I1Cent= 0 FoldK=F
 Matrix for removal 19 Erem= -94.2290729458342     Crem= 0.000D+00
 FoFJK:  IHMeth= 1 ICntrl=     0 DoSepK=T KAlg= 1 I1Cent= 0 FoldK=F
 Rare condition: small coef for last iteration:  0.000D+00
 Matrix for removal 19 Erem= -94.2291818854480     Crem= 0.000D+00
 Restarting incremental Fock formation.
 FoFJK:  IHMeth= 1 ICntrl=     0 DoSepK=T KAlg= 1 I1Cent= 0 FoldK=F
 Rare condition: small coef for last iteration:  0.000D+00
 Matrix for removal 19 Erem= -94.2289027751607     Crem= 0.000D+00
 FoFJK:  IHMeth= 1 ICntrl=     0 DoSepK=T KAlg= 1 I1Cent= 0 FoldK=F
 Matrix for removal 19 Erem= -94.2287362997891     Crem= 0.000D+00
 FoFJK:  IHMeth= 1 ICntrl=     0 DoSepK=T KAlg= 1 I1Cent= 0 FoldK=F
 Rare condition: small coef for last iteration:  0.000D+00
 Matrix for removal 19 Erem= -94.2292126489346     Crem= 0.000D+00
 FoFJK:  IHMeth= 1 ICntrl=     0 DoSepK=T KAlg= 1 I1Cent= 0 FoldK=F
 Matrix for removal 19 Erem= -94.2284584643225     Crem= 0.000D+00
 FoFJK:  IHMeth= 1 ICntrl=     0 DoSepK=T KAlg= 1 I1Cent= 0 FoldK=F
 Matrix for removal 19 Erem= -94.2285282882641     Crem= 0.000D+00
 FoFJK:  IHMeth= 1 ICntrl=     0 DoSepK=T KAlg= 1 I1Cent= 0 FoldK=F
 Matrix for removal 19 Erem= -94.2290729457764     Crem= 0.000D+00
 FoFJK:  IHMeth= 1 ICntrl=     0 DoSepK=T KAlg= 1 I1Cent= 0 FoldK=F
 Rare condition: small coef for last iteration:  0.000D+00
 Matrix for removal 19 Erem= -94.2291818854913     Crem= 0.000D+00
 FoFJK:  IHMeth= 1 ICntrl=     0 DoSepK=T KAlg= 1 I1Cent= 0 FoldK=F
 Rare condition: small coef for last iteration:  0.000D+00
 Matrix for removal 19 Erem= -94.2289027751647     Crem= 0.000D+00
 FoFJK:  IHMeth= 1 ICntrl=     0 DoSepK=T KAlg= 1 I1Cent= 0 FoldK=F
 Matrix for removal 19 Erem= -94.2287362997909     Crem= 0.000D+00
 FoFJK:  IHMeth= 1 ICntrl=     0 DoSepK=T KAlg= 1 I1Cent= 0 FoldK=F
 Rare condition: small coef for last iteration:  0.000D+00
 Matrix for removal 19 Erem= -94.2292126488777     Crem= 0.000D+00
 FoFJK:  IHMeth= 1 ICntrl=     0 DoSepK=T KAlg= 1 I1Cent= 0 FoldK=F
 Matrix for removal 19 Erem= -94.2284584643061     Crem= 0.000D+00
 FoFJK:  IHMeth= 1 ICntrl=     0 DoSepK=T KAlg= 1 I1Cent= 0 FoldK=F
 Matrix for removal 19 Erem= -94.2285282882579     Crem= 0.000D+00
 FoFJK:  IHMeth= 1 ICntrl=     0 DoSepK=T KAlg= 1 I1Cent= 0 FoldK=F
 Matrix for removal 19 Erem= -94.2290729457774     Crem= 0.000D+00
 FoFJK:  IHMeth= 1 ICntrl=     0 DoSepK=T KAlg= 1 I1Cent= 0 FoldK=F
 Rare condition: small coef for last iteration:  0.000D+00
 Matrix for removal 19 Erem= -94.2291818855274     Crem= 0.000D+00
 FoFJK:  IHMeth= 1 ICntrl=     0 DoSepK=T KAlg= 1 I1Cent= 0 FoldK=F
 Rare condition: small coef for last iteration:  0.000D+00
 Matrix for removal 19 Erem= -94.2289027752124     Crem= 0.000D+00
 FoFJK:  IHMeth= 1 ICntrl=     0 DoSepK=T KAlg= 1 I1Cent= 0 FoldK=F
 Matrix for removal 19 Erem= -94.2287362998492     Crem= 0.000D+00
 FoFJK:  IHMeth= 1 ICntrl=     0 DoSepK=T KAlg= 1 I1Cent= 0 FoldK=F
 Rare condition: small coef for last iteration:  0.000D+00
 Matrix for removal 19 Erem= -94.2292126488685     Crem= 0.000D+00
 FoFJK:  IHMeth= 1 ICntrl=     0 DoSepK=T KAlg= 1 I1Cent= 0 FoldK=F
 Matrix for removal 19 Erem= -94.2284584643158     Crem= 0.000D+00
 FoFJK:  IHMeth= 1 ICntrl=     0 DoSepK=T KAlg= 1 I1Cent= 0 FoldK=F
 Matrix for removal 19 Erem= -94.2285282882438     Crem= 0.000D+00
 FoFJK:  IHMeth= 1 ICntrl=     0 DoSepK=T KAlg= 1 I1Cent= 0 FoldK=F
 Matrix for removal 19 Erem= -94.2290729458030     Crem= 0.000D+00
 Restarting incremental Fock formation.
 FoFJK:  IHMeth= 1 ICntrl=     0 DoSepK=T KAlg= 1 I1Cent= 0 FoldK=F
 Rare condition: small coef for last iteration:  0.000D+00
 Matrix for removal 19 Erem= -94.2291818855438     Crem= 0.000D+00
 FoFJK:  IHMeth= 1 ICntrl=     0 DoSepK=T KAlg= 1 I1Cent= 0 FoldK=F
 Rare condition: small coef for last iteration:  0.000D+00
 Matrix for removal 19 Erem= -94.2289027752430     Crem= 0.000D+00
 FoFJK:  IHMeth= 1 ICntrl=     0 DoSepK=T KAlg= 1 I1Cent= 0 FoldK=F
 Matrix for removal 19 Erem= -94.2287362998870     Crem= 0.000D+00
 FoFJK:  IHMeth= 1 ICntrl=     0 DoSepK=T KAlg= 1 I1Cent= 0 FoldK=F
 Rare condition: small coef for last iteration:  0.000D+00
 Matrix for removal 19 Erem= -94.2292126489112     Crem= 0.000D+00
 FoFJK:  IHMeth= 1 ICntrl=     0 DoSepK=T KAlg= 1 I1Cent= 0 FoldK=F
 Matrix for removal 19 Erem= -94.2284584643285     Crem= 0.000D+00
 FoFJK:  IHMeth= 1 ICntrl=     0 DoSepK=T KAlg= 1 I1Cent= 0 FoldK=F
 Matrix for removal 19 Erem= -94.2285282882769     Crem= 0.000D+00
 FoFJK:  IHMeth= 1 ICntrl=     0 DoSepK=T KAlg= 1 I1Cent= 0 FoldK=F
 Matrix for removal 19 Erem= -94.2290729457569     Crem= 0.000D+00
 FoFJK:  IHMeth= 1 ICntrl=     0 DoSepK=T KAlg= 1 I1Cent= 0 FoldK=F
 Rare condition: small coef for last iteration:  0.000D+00
 Matrix for removal 19 Erem= -94.2291818854390     Crem= 0.000D+00
 FoFJK:  IHMeth= 1 ICntrl=     0 DoSepK=T KAlg= 1 I1Cent= 0 FoldK=F
 Rare condition: small coef for last iteration:  0.000D+00
 Matrix for removal 19 Erem= -94.2289027751525     Crem= 0.000D+00
 FoFJK:  IHMeth= 1 ICntrl=     0 DoSepK=T KAlg= 1 I1Cent= 0 FoldK=F
 Matrix for removal 19 Erem= -94.2287362997728     Crem= 0.000D+00
 FoFJK:  IHMeth= 1 ICntrl=     0 DoSepK=T KAlg= 1 I1Cent= 0 FoldK=F
 Rare condition: small coef for last iteration:  0.000D+00
 Matrix for removal 19 Erem= -94.2292126488924     Crem= 0.000D+00
 FoFJK:  IHMeth= 1 ICntrl=     0 DoSepK=T KAlg= 1 I1Cent= 0 FoldK=F
 Matrix for removal 19 Erem= -94.2284584643008     Crem= 0.000D+00
 FoFJK:  IHMeth= 1 ICntrl=     0 DoSepK=T KAlg= 1 I1Cent= 0 FoldK=F
 Matrix for removal 19 Erem= -94.2285282882709     Crem= 0.000D+00
 FoFJK:  IHMeth= 1 ICntrl=     0 DoSepK=T KAlg= 1 I1Cent= 0 FoldK=F
 Matrix for removal 19 Erem= -94.2290729457667     Crem= 0.000D+00
 FoFJK:  IHMeth= 1 ICntrl=     0 DoSepK=T KAlg= 1 I1Cent= 0 FoldK=F
 Rare condition: small coef for last iteration:  0.000D+00
 Matrix for removal 19 Erem= -94.2291818853908     Crem= 0.000D+00
 FoFJK:  IHMeth= 1 ICntrl=     0 DoSepK=T KAlg= 1 I1Cent= 0 FoldK=F
 Rare condition: small coef for last iteration:  0.000D+00
 Matrix for removal 19 Erem= -94.2289027751480     Crem= 0.000D+00
 FoFJK:  IHMeth= 1 ICntrl=     0 DoSepK=T KAlg= 1 I1Cent= 0 FoldK=F
 Matrix for removal 19 Erem= -94.2287362997572     Crem= 0.000D+00
 FoFJK:  IHMeth= 1 ICntrl=     0 DoSepK=T KAlg= 1 I1Cent= 0 FoldK=F
 Rare condition: small coef for last iteration:  0.000D+00
 Matrix for removal 19 Erem= -94.2292126489176     Crem= 0.000D+00
 FoFJK:  IHMeth= 1 ICntrl=     0 DoSepK=T KAlg= 1 I1Cent= 0 FoldK=F
 Matrix for removal 19 Erem= -94.2284584642945     Crem= 0.000D+00
 FoFJK:  IHMeth= 1 ICntrl=     0 DoSepK=T KAlg= 1 I1Cent= 0 FoldK=F
 Matrix for removal 19 Erem= -94.2285282882496     Crem= 0.000D+00
 Restarting incremental Fock formation.
 FoFJK:  IHMeth= 1 ICntrl=     0 DoSepK=T KAlg= 1 I1Cent= 0 FoldK=F
 Matrix for removal 19 Erem= -94.2290729458091     Crem= 0.000D+00
 FoFJK:  IHMeth= 1 ICntrl=     0 DoSepK=T KAlg= 1 I1Cent= 0 FoldK=F
 Rare condition: small coef for last iteration:  0.000D+00
 Matrix for removal 19 Erem= -94.2291818853396     Crem= 0.000D+00
 FoFJK:  IHMeth= 1 ICntrl=     0 DoSepK=T KAlg= 1 I1Cent= 0 FoldK=F
 Rare condition: small coef for last iteration:  0.000D+00
 Matrix for removal 19 Erem= -94.2289027751613     Crem= 0.000D+00
 FoFJK:  IHMeth= 1 ICntrl=     0 DoSepK=T KAlg= 1 I1Cent= 0 FoldK=F
 Matrix for removal 19 Erem= -94.2287362997633     Crem= 0.000D+00
 FoFJK:  IHMeth= 1 ICntrl=     0 DoSepK=T KAlg= 1 I1Cent= 0 FoldK=F
 Rare condition: small coef for last iteration:  0.000D+00
 Matrix for removal 19 Erem= -94.2292126489662     Crem= 0.000D+00
 FoFJK:  IHMeth= 1 ICntrl=     0 DoSepK=T KAlg= 1 I1Cent= 0 FoldK=F
 Matrix for removal 19 Erem= -94.2284584642987     Crem= 0.000D+00
 FoFJK:  IHMeth= 1 ICntrl=     0 DoSepK=T KAlg= 1 I1Cent= 0 FoldK=F
 Matrix for removal 19 Erem= -94.2285282882424     Crem= 0.000D+00
 FoFJK:  IHMeth= 1 ICntrl=     0 DoSepK=T KAlg= 1 I1Cent= 0 FoldK=F
 Matrix for removal 19 Erem= -94.2290729458164     Crem= 0.000D+00
 FoFJK:  IHMeth= 1 ICntrl=     0 DoSepK=T KAlg= 1 I1Cent= 0 FoldK=F
 Rare condition: small coef for last iteration:  0.000D+00
 Matrix for removal 19 Erem= -94.2291818853778     Crem= 0.000D+00
 FoFJK:  IHMeth= 1 ICntrl=     0 DoSepK=T KAlg= 1 I1Cent= 0 FoldK=F
 Rare condition: small coef for last iteration:  0.000D+00
 Matrix for removal 19 Erem= -94.2289027751658     Crem= 0.000D+00
 FoFJK:  IHMeth= 1 ICntrl=     0 DoSepK=T KAlg= 1 I1Cent= 0 FoldK=F
 Matrix for removal 19 Erem= -94.2287362997868     Crem= 0.000D+00
 FoFJK:  IHMeth= 1 ICntrl=     0 DoSepK=T KAlg= 1 I1Cent= 0 FoldK=F
 Rare condition: small coef for last iteration:  0.000D+00
 Matrix for removal 19 Erem= -94.2292126489492     Crem= 0.000D+00
 FoFJK:  IHMeth= 1 ICntrl=     0 DoSepK=T KAlg= 1 I1Cent= 0 FoldK=F
 Matrix for removal 19 Erem= -94.2284584643205     Crem= 0.000D+00
 FoFJK:  IHMeth= 1 ICntrl=     0 DoSepK=T KAlg= 1 I1Cent= 0 FoldK=F
 Matrix for removal 19 Erem= -94.2285282882672     Crem= 0.000D+00
 FoFJK:  IHMeth= 1 ICntrl=     0 DoSepK=T KAlg= 1 I1Cent= 0 FoldK=F
 Matrix for removal 19 Erem= -94.2290729457970     Crem= 0.000D+00
 FoFJK:  IHMeth= 1 ICntrl=     0 DoSepK=T KAlg= 1 I1Cent= 0 FoldK=F
 Rare condition: small coef for last iteration:  0.000D+00
 Matrix for removal 19 Erem= -94.2291818854851     Crem= 0.000D+00
 FoFJK:  IHMeth= 1 ICntrl=     0 DoSepK=T KAlg= 1 I1Cent= 0 FoldK=F
 Rare condition: small coef for last iteration:  0.000D+00
 Matrix for removal 19 Erem= -94.2289027752066     Crem= 0.000D+00
 FoFJK:  IHMeth= 1 ICntrl=     0 DoSepK=T KAlg= 1 I1Cent= 0 FoldK=F
 Matrix for removal 19 Erem= -94.2287362998423     Crem= 0.000D+00
 FoFJK:  IHMeth= 1 ICntrl=     0 DoSepK=T KAlg= 1 I1Cent= 0 FoldK=F
 Rare condition: small coef for last iteration:  0.000D+00
 Matrix for removal 19 Erem= -94.2292126488302     Crem= 0.000D+00
 FoFJK:  IHMeth= 1 ICntrl=     0 DoSepK=T KAlg= 1 I1Cent= 0 FoldK=F
 Matrix for removal 19 Erem= -94.2284584643227     Crem= 0.000D+00
 Restarting incremental Fock formation.
 FoFJK:  IHMeth= 1 ICntrl=     0 DoSepK=T KAlg= 1 I1Cent= 0 FoldK=F
 Matrix for removal 19 Erem= -94.2285282882703     Crem= 0.000D+00
 FoFJK:  IHMeth= 1 ICntrl=     0 DoSepK=T KAlg= 1 I1Cent= 0 FoldK=F
 Matrix for removal 19 Erem= -94.2290729457665     Crem= 0.000D+00
 FoFJK:  IHMeth= 1 ICntrl=     0 DoSepK=T KAlg= 1 I1Cent= 0 FoldK=F
 Rare condition: small coef for last iteration:  0.000D+00
 Matrix for removal 19 Erem= -94.2291818856166     Crem= 0.000D+00
 FoFJK:  IHMeth= 1 ICntrl=     0 DoSepK=T KAlg= 1 I1Cent= 0 FoldK=F
 Rare condition: small coef for last iteration:  0.000D+00
 Matrix for removal 19 Erem= -94.2289027752103     Crem= 0.000D+00
 FoFJK:  IHMeth= 1 ICntrl=     0 DoSepK=T KAlg= 1 I1Cent= 0 FoldK=F
 Matrix for removal 19 Erem= -94.2287362998562     Crem= 0.000D+00
 FoFJK:  IHMeth= 1 ICntrl=     0 DoSepK=T KAlg= 1 I1Cent= 0 FoldK=F
 Rare condition: small coef for last iteration:  0.000D+00
 Matrix for removal 19 Erem= -94.2292126488245     Crem= 0.000D+00
 FoFJK:  IHMeth= 1 ICntrl=     0 DoSepK=T KAlg= 1 I1Cent= 0 FoldK=F
 Matrix for removal 19 Erem= -94.2284584643305     Crem= 0.000D+00
 FoFJK:  IHMeth= 1 ICntrl=     0 DoSepK=T KAlg= 1 I1Cent= 0 FoldK=F
 Matrix for removal 19 Erem= -94.2285282882950     Crem= 0.000D+00
 FoFJK:  IHMeth= 1 ICntrl=     0 DoSepK=T KAlg= 1 I1Cent= 0 FoldK=F
 Matrix for removal 19 Erem= -94.2290729457467     Crem= 0.000D+00
 FoFJK:  IHMeth= 1 ICntrl=     0 DoSepK=T KAlg= 1 I1Cent= 0 FoldK=F
 Rare condition: small coef for last iteration:  0.000D+00
 Matrix for removal 19 Erem= -94.2291818855153     Crem= 0.000D+00
 FoFJK:  IHMeth= 1 ICntrl=     0 DoSepK=T KAlg= 1 I1Cent= 0 FoldK=F
 Rare condition: small coef for last iteration:  0.000D+00
 Matrix for removal 19 Erem= -94.2289027751942     Crem= 0.000D+00
 FoFJK:  IHMeth= 1 ICntrl=     0 DoSepK=T KAlg= 1 I1Cent= 0 FoldK=F
 Matrix for removal 19 Erem= -94.2287362998337     Crem= 0.000D+00
 FoFJK:  IHMeth= 1 ICntrl=     0 DoSepK=T KAlg= 1 I1Cent= 0 FoldK=F
 Rare condition: small coef for last iteration:  0.000D+00
 Matrix for removal 19 Erem= -94.2292126488956     Crem= 0.000D+00
 FoFJK:  IHMeth= 1 ICntrl=     0 DoSepK=T KAlg= 1 I1Cent= 0 FoldK=F
 Matrix for removal 19 Erem= -94.2284584643983     Crem= 0.000D+00
 FoFJK:  IHMeth= 1 ICntrl=     0 DoSepK=T KAlg= 1 I1Cent= 0 FoldK=F
 Matrix for removal 19 Erem= -94.2285282883941     Crem= 0.000D+00
 FoFJK:  IHMeth= 1 ICntrl=     0 DoSepK=T KAlg= 1 I1Cent= 0 FoldK=F
 Matrix for removal 19 Erem= -94.2290729458798     Crem= 0.000D+00
 FoFJK:  IHMeth= 1 ICntrl=     0 DoSepK=T KAlg= 1 I1Cent= 0 FoldK=F
 Rare condition: small coef for last iteration:  0.000D+00
 Matrix for removal 19 Erem= -94.2291818852230     Crem= 0.000D+00
 FoFJK:  IHMeth= 1 ICntrl=     0 DoSepK=T KAlg= 1 I1Cent= 0 FoldK=F
 Rare condition: small coef for last iteration:  0.000D+00
 Matrix for removal 19 Erem= -94.2289027751397     Crem= 0.000D+00
 FoFJK:  IHMeth= 1 ICntrl=     0 DoSepK=T KAlg= 1 I1Cent= 0 FoldK=F
 Matrix for removal 19 Erem= -94.2287362997944     Crem= 0.000D+00
 FoFJK:  IHMeth= 1 ICntrl=     0 DoSepK=T KAlg= 1 I1Cent= 0 FoldK=F
 Rare condition: small coef for last iteration:  0.000D+00
 Matrix for removal 19 Erem= -94.2292126491001     Crem= 0.000D+00
 Restarting incremental Fock formation.
 FoFJK:  IHMeth= 1 ICntrl=     0 DoSepK=T KAlg= 1 I1Cent= 0 FoldK=F
 Matrix for removal 19 Erem= -94.2284584644691     Crem= 0.000D+00
 FoFJK:  IHMeth= 1 ICntrl=     0 DoSepK=T KAlg= 1 I1Cent= 0 FoldK=F
 Matrix for removal 19 Erem= -94.2285282884555     Crem= 0.000D+00
 FoFJK:  IHMeth= 1 ICntrl=     0 DoSepK=T KAlg= 1 I1Cent= 0 FoldK=F
 Matrix for removal 19 Erem= -94.2290729458713     Crem= 0.000D+00
 FoFJK:  IHMeth= 1 ICntrl=     0 DoSepK=T KAlg= 1 I1Cent= 0 FoldK=F
 Rare condition: small coef for last iteration:  0.000D+00
 Matrix for removal 19 Erem= -94.2291818849561     Crem= 0.000D+00
 FoFJK:  IHMeth= 1 ICntrl=     0 DoSepK=T KAlg= 1 I1Cent= 0 FoldK=F
 Rare condition: small coef for last iteration:  0.000D+00
 Matrix for removal 19 Erem= -94.2289027750329     Crem= 0.000D+00
 FoFJK:  IHMeth= 1 ICntrl=     0 DoSepK=T KAlg= 1 I1Cent= 0 FoldK=F
 Matrix for removal 19 Erem= -94.2287362996555     Crem= 0.000D+00
 FoFJK:  IHMeth= 1 ICntrl=     0 DoSepK=T KAlg= 1 I1Cent= 0 FoldK=F
 Rare condition: small coef for last iteration:  0.000D+00
 Matrix for removal 19 Erem= -94.2292126492140     Crem= 0.000D+00
 FoFJK:  IHMeth= 1 ICntrl=     0 DoSepK=T KAlg= 1 I1Cent= 0 FoldK=F
 Matrix for removal 19 Erem= -94.2284584643358     Crem= 0.000D+00
 FoFJK:  IHMeth= 1 ICntrl=     0 DoSepK=T KAlg= 1 I1Cent= 0 FoldK=F
 Matrix for removal 19 Erem= -94.2285282882726     Crem= 0.000D+00
 FoFJK:  IHMeth= 1 ICntrl=     0 DoSepK=T KAlg= 1 I1Cent= 0 FoldK=F
 Matrix for removal 19 Erem= -94.2290729458059     Crem= 0.000D+00
 FoFJK:  IHMeth= 1 ICntrl=     0 DoSepK=T KAlg= 1 I1Cent= 0 FoldK=F
 Rare condition: small coef for last iteration:  0.000D+00
 Matrix for removal 19 Erem= -94.2291818852584     Crem= 0.000D+00
 FoFJK:  IHMeth= 1 ICntrl=     0 DoSepK=T KAlg= 1 I1Cent= 0 FoldK=F
 Rare condition: small coef for last iteration:  0.000D+00
 Matrix for removal 19 Erem= -94.2289027750344     Crem= 0.000D+00
 FoFJK:  IHMeth= 1 ICntrl=     0 DoSepK=T KAlg= 1 I1Cent= 0 FoldK=F
 Matrix for removal 19 Erem= -94.2287362996404     Crem= 0.000D+00
 FoFJK:  IHMeth= 1 ICntrl=     0 DoSepK=T KAlg= 1 I1Cent= 0 FoldK=F
 Rare condition: small coef for last iteration:  0.000D+00
 Matrix for removal 19 Erem= -94.2292126489965     Crem= 0.000D+00
 FoFJK:  IHMeth= 1 ICntrl=     0 DoSepK=T KAlg= 1 I1Cent= 0 FoldK=F
 Matrix for removal 19 Erem= -94.2284584643160     Crem= 0.000D+00
 FoFJK:  IHMeth= 1 ICntrl=     0 DoSepK=T KAlg= 1 I1Cent= 0 FoldK=F
 Matrix for removal 19 Erem= -94.2285282882802     Crem= 0.000D+00
 FoFJK:  IHMeth= 1 ICntrl=     0 DoSepK=T KAlg= 1 I1Cent= 0 FoldK=F
 Matrix for removal 19 Erem= -94.2290729457960     Crem= 0.000D+00
 FoFJK:  IHMeth= 1 ICntrl=     0 DoSepK=T KAlg= 1 I1Cent= 0 FoldK=F
 Rare condition: small coef for last iteration:  0.000D+00
 Matrix for removal 19 Erem= -94.2291818855130     Crem= 0.000D+00
 FoFJK:  IHMeth= 1 ICntrl=     0 DoSepK=T KAlg= 1 I1Cent= 0 FoldK=F
 Rare condition: small coef for last iteration:  0.000D+00
 Matrix for removal 19 Erem= -94.2289027751416     Crem= 0.000D+00
 FoFJK:  IHMeth= 1 ICntrl=     0 DoSepK=T KAlg= 1 I1Cent= 0 FoldK=F
 Matrix for removal 19 Erem= -94.2287362997646     Crem= 0.000D+00
 Restarting incremental Fock formation.
 FoFJK:  IHMeth= 1 ICntrl=     0 DoSepK=T KAlg= 1 I1Cent= 0 FoldK=F
 Rare condition: small coef for last iteration:  0.000D+00
 Matrix for removal 19 Erem= -94.2292126488431     Crem= 0.000D+00
 FoFJK:  IHMeth= 1 ICntrl=     0 DoSepK=T KAlg= 1 I1Cent= 0 FoldK=F
 Matrix for removal 19 Erem= -94.2284584643029     Crem= 0.000D+00
 FoFJK:  IHMeth= 1 ICntrl=     0 DoSepK=T KAlg= 1 I1Cent= 0 FoldK=F
 Matrix for removal 19 Erem= -94.2285282882575     Crem= 0.000D+00
 FoFJK:  IHMeth= 1 ICntrl=     0 DoSepK=T KAlg= 1 I1Cent= 0 FoldK=F
 Matrix for removal 19 Erem= -94.2290729457883     Crem= 0.000D+00
 FoFJK:  IHMeth= 1 ICntrl=     0 DoSepK=T KAlg= 1 I1Cent= 0 FoldK=F
 Rare condition: small coef for last iteration:  0.000D+00
 Matrix for removal 19 Erem= -94.2291818855085     Crem= 0.000D+00
 FoFJK:  IHMeth= 1 ICntrl=     0 DoSepK=T KAlg= 1 I1Cent= 0 FoldK=F
 Rare condition: small coef for last iteration:  0.000D+00
 Matrix for removal 19 Erem= -94.2289027751714     Crem= 0.000D+00
 FoFJK:  IHMeth= 1 ICntrl=     0 DoSepK=T KAlg= 1 I1Cent= 0 FoldK=F
 Matrix for removal 19 Erem= -94.2287362997724     Crem= 0.000D+00
 FoFJK:  IHMeth= 1 ICntrl=     0 DoSepK=T KAlg= 1 I1Cent= 0 FoldK=F
 Rare condition: small coef for last iteration:  0.000D+00
 Matrix for removal 19 Erem= -94.2292126488773     Crem= 0.000D+00
 FoFJK:  IHMeth= 1 ICntrl=     0 DoSepK=T KAlg= 1 I1Cent= 0 FoldK=F
 Matrix for removal 19 Erem= -94.2284584642789     Crem= 0.000D+00
 FoFJK:  IHMeth= 1 ICntrl=     0 DoSepK=T KAlg= 1 I1Cent= 0 FoldK=F
 Matrix for removal 19 Erem= -94.2285282882619     Crem= 0.000D+00
 FoFJK:  IHMeth= 1 ICntrl=     0 DoSepK=T KAlg= 1 I1Cent= 0 FoldK=F
