           6
AU Step:          0 Time:        0.0000000000
C         -4.6519303176         0.5998128696         0.3398868982
N         -2.2608770381         0.2887926719         0.1639860874
H         -5.4359572810         1.6738523232         1.9355499129
H         -5.9049774807        -0.2096157926        -1.1054962128
H         -1.4584057807        -0.7055453144        -1.3031360550
H         -1.0294464523         1.0187814049         1.4814502350
           6
AU Step:          1 Time:        8.2681585435
C         -4.6523363874         0.5998656787         0.3399167918
N         -2.2605412006         0.2887489970         0.1639613629
H         -5.4359060561         1.6737632461         1.9354157275
H         -5.9048862667        -0.2095451392        -1.1053726550
H         -1.4583872837        -0.7055316785        -1.3031117357
H         -1.0294355386         1.0187638364         1.4814239091
           6
AU Step:          2 Time:       16.5363170871
C         -4.6535521009         0.6000237811         0.3400062894
N         -2.2595356897         0.2886182333         0.1638873365
H         -5.4357545344         1.6734984292         1.9350167085
H         -5.9046158084        -0.2093349010        -1.1050051288
H         -1.4583303660        -0.7054921242        -1.3030407259
H         -1.0294008120         1.0187120357         1.4813466267
           6
AU Step:          3 Time:       24.8044756306
C         -4.6555700140         0.6002862080         0.3401548446
N         -2.2578664748         0.2884011573         0.1637644474
H         -5.4355091460         1.6730650974         1.9343634348
H         -5.9041756174        -0.2089902250        -1.1044030454
H         -1.4582307678        -0.7054306821        -1.3029288404
H         -1.0293363441         1.0186287102         1.4812234451
           6
AU Step:          4 Time:       33.0726341742
C         -4.6583778575         0.6006513617         0.3403615627
N         -2.2555433886         0.2880990510         0.1635934120
H         -5.4351805240         1.6724752215         1.9334734030
H         -5.9035814255        -0.2085196439        -1.1035820085
H         -1.4580814698        -0.7053540168        -1.3027856361
H         -1.0292323514         1.0185183094         1.4810627298
           6
AU Step:          5 Time:       41.3407927177
C         -4.6619587447         0.6011170434         0.3406252023
N         -2.2525799518         0.2877136759         0.1633752256
H         -5.4347833514         1.6717453761         1.9323709158
H         -5.9028550070        -0.2079349909        -1.1025636389
H         -1.4578727986        -0.7052712701        -1.3026243019
H         -1.0290753845         1.0183869565         1.4808759553
           6
AU Step:          6 Time:       49.6089512612
C         -4.6662914386         0.6016804920         0.3409442017
N         -2.2489931505         0.2872472404         0.1631111391
H         -5.4343361972         1.6708965818         1.9310867972
H         -5.9020238995        -0.2072513007        -1.1013753682
H         -1.4575925847        -0.7051939270        -1.3024614200
H         -1.0288485259         1.0182423626         1.4806775318
           6
AU Step:          7 Time:       57.8771098048
C         -4.6713505690         0.6023384590         0.3413166861
N         -2.2448032495         0.2867023383         0.1628026549
H         -5.4338613807         1.6699536924         1.9296581233
H         -5.9011211602        -0.2064867207        -1.1000500518
H         -1.4572262996        -0.7051352141        -1.3023169152
H         -1.0285316324         1.0180937138         1.4804846313
           6
AU Step:          8 Time:       66.1452683483
C         -4.6771073178         0.6030871896         0.3417405377
N         -2.2400332311         0.2860819487         0.1624514798
H         -5.4333843708         1.6689461274         1.9281276012
H         -5.9001847111        -0.2056621101        -1.0986258733
H         -1.4567574848        -0.7051108303        -1.3022131097
H         -1.0281018009         1.0179514933         1.4803165666
           6
AU Step:          9 Time:       74.4134268919
C         -4.6835297148         0.6039225106         0.3422133946
N         -2.2347085435         0.2853894323         0.1620594588
H         -5.4329335154         1.6679064779         1.9265433292
H         -5.8992569558        -0.2048010398        -1.0971455022
H         -1.4561679680        -0.7051380760        -1.3021744815
H         -1.0275337798         1.0178270065         1.4801948941
           6
AU Step:         10 Time:       82.6815854354
C         -4.6905830752         0.6048399469         0.3427326777
N         -2.2288567495         0.2846283124         0.1616286636
H         -5.4325397515         1.6668705489         1.9249579189
H         -5.8983841248        -0.2039293625        -1.0956558147
H         -1.4554381051        -0.7052350667        -1.3022276166
H         -1.0268003255         1.0177327823         1.4801424071
           6
AU Step:         11 Time:       90.9497439789
C         -4.6982304982         0.6058346892         0.3432956785
N         -2.2225071098         0.2838024051         0.1611612546
H         -5.4322359811         1.6658768439         1.9234277080
H         -5.8976156156        -0.2030747312        -1.0942072101
H         -1.4545472480        -0.7054211629        -1.3024001880
H         -1.0258728890         1.0176816099         1.4801830951
           6
AU Step:         12 Time:       99.2179025225
C         -4.7064334134         0.6069017109         0.3438995606
N         -2.2156901633         0.2829156906         0.1606594798
H         -5.4320564960         1.6649657747         1.9220120011
H         -5.8970030710        -0.2022662894        -1.0928527029
H         -1.4534741054        -0.7057160807        -1.3027204216
H         -1.0247220535         1.0176865228         1.4803414525
           6
AU Step:         13 Time:      107.4860610660
C         -4.7151520550         0.6080358412         0.3445413930
N         -2.2084373293         0.2819722715         0.1601256504
H         -5.4320364606         1.6641789177         1.9207721265
H         -5.8965995436        -0.2015342807        -1.0916469993
H         -1.4521972348        -0.7061395112        -1.3032165285
H         -1.0233182869         1.0177604846         1.4806418787
           6
AU Step:         14 Time:      115.7542196095
C         -4.7243459655         0.6092318091         0.3452182036
N         -2.2007805246         0.2809762991         0.1595621165
H         -5.4322112782         1.6635584877         1.9197701148
H         -5.8964585645        -0.2009092436        -1.0906456854
H         -1.4506953701        -0.7067106106        -1.3039158788
H         -1.0216324875         1.0179160963         1.4811080551
           6
AU Step:         15 Time:      124.0223781531
C         -4.7339744687         0.6104843325         0.3459269919
N         -2.1927518029         0.2799319606         0.1589712253
H         -5.4326158076         1.6631462260         1.9190676819
H         -5.8966330385        -0.2004216866        -1.0899038683
H         -1.4489479725        -0.7074475814        -1.3048442859
H         -1.0196367061         1.0181650852         1.4817623232
           6
AU Step:         16 Time:      132.2905366966
C         -4.7439971418         0.6117881495         0.3466647944
N         -2.1843829912         0.2788434017         0.1583553242
H         -5.4332838215         1.6629827376         1.9187247005
H         -5.8971741902        -0.2001011918        -1.0894752448
H         -1.4469356282        -0.7083671063        -1.3060254000
H         -1.0173047611         1.0185181989         1.4826248527
           6
AU Step:         17 Time:      140.5586952402
C         -4.7543742098         0.6131380938         0.3474286776
N         -2.1757054156         0.2777146757         0.1577167322
H         -5.4342471786         1.6631065332         1.9187979710
H         -5.8981305269        -0.1999757102        -1.0894107564
H         -1.4446404136        -0.7094837688        -1.3074798390
H         -1.0146128567         1.0189847021         1.4837131324
           6
AU Step:         18 Time:      148.8268537837
C         -4.7650669422         0.6145290983         0.3482158056
N         -2.1667496020         0.2765497868         0.1570576787
H         -5.4355352620         1.6635529895         1.9193398628
H         -5.8995467244        -0.2000708507        -1.0897573681
H         -1.4420463724        -0.7108099893        -1.3092244859
H         -1.0115402074         1.0195719806         1.4850414510
           6
AU Step:         19 Time:      157.0950123272
C         -4.7760379791         0.6159562968         0.3490234530
N         -2.1575450496         0.2753525536         0.1563803311
H         -5.4371744641         1.6643532250         1.9203970026
H         -5.9014626279        -0.2004090093        -1.0905570223
H         -1.4391398370        -0.7123553508        -1.3112717651
H         -1.0080694954         1.0202858151         1.4866199076
           6
AU Step:         20 Time:      165.3631708708
C         -4.7872515886         0.6174150453         0.3498489791
N         -2.1481200502         0.2741266849         0.1556867664
H         -5.4391880761         1.6655275460         1.9220128462
H         -5.9039119887        -0.2010032949        -1.0918487838
H         -1.4359102420        -0.7141326791        -1.3136253738
H         -1.0041868792         1.0211356366         1.4884504113
           6
AU Step:         21 Time:      173.6313294143
C         -4.7977779389         0.6187844506         0.3506238271
N         -2.1390502485         0.2729470345         0.1550193840
H         -5.4432642010         1.6680441615         1.9254823719
H         -5.9089422501        -0.2023366727        -1.0946514518
H         -1.4320479789        -0.7162511948        -1.3164332885
H         -0.9995471318         1.0221458148         1.4906325025
           6
AU Step:         22 Time:      181.8994879579
C         -4.8125929143         0.6207118576         0.3517142524
N         -2.1266115431         0.2713292388         0.1541041655
H         -5.4792776184         1.6905805946         1.9565653893
H         -5.9535396761        -0.2143995373        -1.1198206553
H         -1.4031086754        -0.7320821337        -1.3374249601
H         -0.9648023434         1.0296760804         1.5069347527
           6
AU Step:         23 Time:      190.1676465014
C         -4.8276034828         0.6226646890         0.3528191071
N         -2.1139970000         0.2696886151         0.1531760134
H         -5.5154303897         1.7131781878         1.9877295299
H         -5.9982974509        -0.2264845395        -1.1450492668
H         -1.3740628110        -0.7478739811        -1.3583372090
H         -0.9299772177         1.0371424993         1.5231436526
           6
AU Step:         24 Time:      198.4358050449
C         -4.8428203597         0.6246443304         0.3539391772
N         -2.1012021888         0.2680245870         0.1522345998
H         -5.5514948961         1.7355398416         2.0185377257
H         -6.0428594838        -0.2383704219        -1.1699431799
H         -1.3451190224        -0.7633924103        -1.3788238158
H         -0.8953807084         1.0443780879         1.5389511367
           6
AU Step:         25 Time:      206.7039635885
C         -4.8582513706         0.6266517949         0.3550750372
N         -2.0882239925         0.2663367477         0.1512796915
H         -5.5872676464         1.7574069592         2.0486099817
H         -6.0869107913        -0.2498659762        -1.1941605834
H         -1.3164671308        -0.7784290094        -1.3985776478
H         -0.8612915287         1.0512353972         1.5540846488
           6
AU Step:         26 Time:      214.9721221320
C         -4.8739015280         0.6286877427         0.3562270526
N         -2.0750607158         0.2646248668         0.1503111641
H         -5.6225687929         1.7785574430         2.0776203060
H         -6.1301760332        -0.2608083289        -1.2174090141
H         -1.2882778086        -0.7928008625        -1.4173302360
H         -0.8279580239         1.0575860760         1.5683066232
           6
AU Step:         27 Time:      223.2402806756
C         -4.8897732945         0.6307524889         0.3573954048
N         -2.0617120616         0.2628889036         0.1493289950
H         -5.6572406960         1.7988027245         2.1052919637
H         -6.1724167047        -0.2710603825        -1.2394409170
H         -1.2607030136        -0.8063494326        -1.4348500138
H         -0.7955991622         1.0633198664         1.5814128256
           6
AU Step:         28 Time:      231.5084392191
C         -4.9058669279         0.6328460613         0.3585801098
N         -2.0481790379         0.2611289892         0.1483332602
H         -5.6911460640         1.8179841831         2.1313921803
H         -6.2134277292        -0.2805079866        -1.2600486954
H         -1.2338768466        -0.8189389408        -1.4509398396
H         -0.7644061312         1.0683433074         1.5932300440
           6
AU Step:         29 Time:      239.7765977626
C         -4.9221808369         0.6349682484         0.3597810434
N         -2.0344638230         0.2593454073         0.1473241239
H         -5.7241659945         1.8359695550         2.1557269055
H         -6.2530339333        -0.2890570807        -1.2790598757
H         -1.2079167012        -0.8304545395        -1.4654341075
H         -0.7345443060         1.0725783310         1.6036134472
           6
AU Step:         30 Time:      248.0447563062
C         -4.9387119218         0.6371186429         0.3609979702
N         -2.0205696166         0.2575385747         0.1463018243
H         -5.7561980419         1.8526495424         2.1781358788
H         -6.2910865965        -0.2966309924        -1.2963326054
H         -1.1829245424        -0.8408004448        -1.4781957380
H         -0.7061553573         1.0759608425         1.6124438627
           6
AU Step:         31 Time:      256.3129148497
C         -4.9554558903         0.6392966829         0.3622305671
N         -2.0065004959         0.2557090211         0.1452666619
H         -5.7871543381         1.8679346802         2.1984880970
H         -6.3274601759        -0.3031679761        -1.3117515147
H         -1.1589882027        -0.8498981202        -1.4891132897
H         -0.6793593539         1.0784393580         1.6196251501
           6
AU Step:         32 Time:      264.5810733933
C         -4.9724075444         0.6415016888         0.3634784464
N         -1.9922612849         0.2538573732         0.1442189906
H         -5.8169598028         1.8817525183         2.2166777161
H         -6.3620492788        -0.3086190231        -1.3252239774
H         -1.1361826121        -0.8576846096        -1.4980983480
H         -0.6542567417         1.0799737499         1.6250818191
           6
AU Step:         33 Time:      272.8492319368
C         -4.9895610129         0.6437328952         0.3647411698
N         -1.9778574619         0.2519843427         0.1431592123
H         -5.8455505078         1.8940451553         2.2326204516
H         -6.3947659752        -0.3129459662        -1.3366768213
H         -1.1145708986        -0.8641110815        -1.5050832743
H         -0.6309300832         1.0805341565         1.6287569813
           6
AU Step:         34 Time:      281.1173904803
C         -5.0069099516         0.6459894757         0.3660182649
N         -1.9632950871         0.2500907166         0.1420877710
H         -5.8728722265         1.9047671430         2.2462504935
H         -6.4255374388        -0.3161198740        -1.3460535282
H         -1.0942053337        -0.8691416162        -1.5100193600
H         -0.6094455443         1.0801000835         1.6306106781
           6
AU Step:         35 Time:      289.3855490239
C         -5.0244476923         0.6482705627         0.3673092354
N         -1.9485807690         0.2481773530         0.1410051509
H         -5.8988791898         1.9138837443         2.2575179382
H         -6.4543039472        -0.3181197275        -1.3533119017
H         -1.0751280907        -0.8727522612        -1.5128754063
H         -0.5898540671         1.0786597083         1.6306186006
           6
AU Step:         36 Time:      297.6537075674
C         -5.0421673527         0.6505752615         0.3686135698
N         -1.9337216628         0.2462451821         0.1399118765
H         -5.9235330346         1.9213695230         2.2663867073
H         -6.4810172229        -0.3189313762        -1.3584221775
H         -1.0573718126        -0.8749303618        -1.5136367317
H         -0.5721922264         1.0762093994         1.6287711931
           6
AU Step:         37 Time:      305.9218661109
C         -5.0600619091         0.6529026594         0.3699307457
N         -1.9187255040         0.2442952092         0.1388085146
H         -5.9468019405         1.9272072437         2.2728329054
H         -6.5056390835        -0.3185467030        -1.3613655506
H         -1.0409599704        -0.8756741740        -1.5123045998
H         -0.5564827546         1.0727534359         1.6250731536
           6
AU Step:         38 Time:      314.1900246545
C         -5.0781242334         0.6552518309         0.3712602332
N         -1.9036006750         0.2423285240         0.1376956797
H         -5.9686599466         1.9313870382         2.2768435961
H         -6.5281404024        -0.3169630261        -1.3621330757
H         -1.0259070163        -0.8749927583        -1.5088960664
H         -0.5427347365         1.0683039484         1.6195433063
           6
AU Step:         39 Time:      322.4581831980
C         -5.0963471006         0.6576218386         0.3726014950
N         -1.8883563065         0.2403463143         0.1365740414
H         -5.9890864349         1.9339058306         2.2784159582
H         -6.5485003440        -0.3141826904        -1.3607249163
H         -1.0122183206        -0.8729061546        -1.5034442464
H         -0.5309434673         1.0628810650         1.6122148478
           6
AU Step:         40 Time:      330.7263417416
C         -5.1147231666         0.6600117302         0.3739539848
N         -1.8730024119         0.2383498830         0.1354443339
H         -6.0080657762         1.9347670035         2.2775568019
H         -6.5667058698        -0.3102128446        -1.3571499237
H         -0.9998898918        -0.8694458395        -1.4959989926
H         -0.5210899667         1.0565132687         1.6031359775
           6
AU Step:         41 Time:      338.9945002851
C         -5.1332449185         0.6624205330         0.3753171432
N         -1.8575500572         0.2363406698         0.1343073689
H         -6.0255871274         1.9339802957         2.2742824296
H         -6.5827515002        -0.3050653991        -1.3514255283
H         -0.9889078775        -0.8646554628        -1.4866279869
H         -0.5131401537         1.0492379628         1.5923708929
           6
AU Step:         42 Time:      347.2626588286
C         -5.1519045980         0.6648472429         0.3766903930
N         -1.8420115648         0.2343202789         0.1331640488
H         -6.0416443920         1.9315619270         2.2686188420
H         -6.5966393329        -0.2987571520        -1.3435779484
H         -0.9792478389        -0.8585918695        -1.4754182439
H         -0.5070436752         1.0411022445         1.5800011639
           6
AU Step:         43 Time:      355.5308173722
C         -5.1706940959         0.6672908119         0.3780731301
N         -1.8264007521         0.2322905088         0.1320153846
H         -6.0562363268         1.9275349534         2.2606022896
H         -6.6083793200        -0.2913101017        -1.3336427084
H         -0.9708738132        -0.8513263879        -1.4624780052
H         -0.5027323987         1.0321638779         1.5661274533
           6
AU Step:         44 Time:      363.7989759157
C         -5.1896048189         0.6697501307         0.3794647147
N         -1.8107332005         0.2302533894         0.1308625147
H         -6.0693668106         1.9219298496         2.2502801774
H         -6.6179898031        -0.2827519292        -1.3216654886
H         -0.9637371742        -0.8429463754        -1.4479389990
H         -0.5001186008         1.0224924391         1.5508715704
           6
AU Step:         45 Time:      372.0671344593
C         -5.2086275197         0.6722240086         0.3808644561
N         -1.7950265525         0.2282112183         0.1297067275
H         -6.0810452837         1.9147853597         2.2377123544
H         -6.6254983422        -0.2731166971        -1.3077033008
H         -0.9577753192        -0.8335569648        -1.4319590064
H         -0.4990929015         1.0121706383         1.5343787844
           6
AU Step:         46 Time:      380.3352930028
C         -5.2277520980         0.6747111477         0.3822716001
N         -1.7793008211         0.2261666059         0.1285494840
H         -6.0912873499         1.9061495898         2.2229727933
H         -6.6309428109        -0.2624457354        -1.2918260573
H         -0.9529102592        -0.8232829411        -1.4147245785
H         -0.4995220571         1.0012956721         1.5168202701
           6
AU Step:         47 Time:      388.6034515463
C         -5.2469673595         0.6772101145         0.3836853098
N         -1.7635787012         0.2241225179         0.1273924437
H         -6.1001155655         1.8960813949         2.2061517119
H         -6.6343728128        -0.2507887653        -1.2741185180
H         -0.9490471742        -0.8122706223        -1.3964537711
H         -0.5012467344         0.9899805939         1.4983955360
           6
AU Step:         48 Time:      396.8716100899
C         -5.2662607364         0.6797193071         0.3851046441
N         -1.7478858619         0.2220823149         0.1262374861
H         -6.1075604178         1.8846520580         2.1873581573
H         -6.6358514138        -0.2382052656        -1.2546826620
H         -0.9460730577        -0.8006895835        -1.3773986340
H         -0.5040794302         0.9783555617         1.4793346608
           6
AU Step:         49 Time:      405.1397686334
C         -5.2856179652         0.6822369201         0.3865285297
N         -1.7322511935         0.2200497867         0.1250867256
H         -6.1136614953         1.8719472654         2.1667230764
H         -6.6354571993        -0.2247661052        -1.2336404832
H         -0.9438556037        -0.7887340481        -1.3578471807
H         -0.5078027636         0.9665688322         1.4599001089
           6
AU Step:         50 Time:      413.4079271770
C         -5.3050227243         0.6847609114         0.3879557256
N         -1.7167069683         0.2180291783         0.1239425170
H         -6.1184688340         1.8580693391         2.1444028753
H         -6.6332866338        -0.2105554443        -1.2111371715
H         -0.9422425622        -0.7766236974        -1.3381244218
H         -0.5121684949         0.9547872621         1.4403877405
           6
AU Step:         51 Time:      421.6760857205
C         -5.3244562357         0.6872889920         0.3893847656
N         -1.7012888613         0.2160252118         0.1228074400
H         -6.1220444140         1.8431395879         2.1205834766
H         -6.6294567015        -0.1956729941        -1.1873445603
H         -0.9410618694        -0.7646035892        -1.3185918480
H         -0.5168977201         0.9431959708         1.4211265793
           6
AU Step:         52 Time:      429.9442442640
C         -5.3438968330         0.6898187451         0.3908138151
N         -1.6860357568         0.2140431456         0.1216842267
H         -6.1244637957         1.8273001352         2.0954851517
H         -6.6241078030        -0.1802371676        -1.1624644031
H         -0.9401229404        -0.7529431276        -1.2996443942
H         -0.5216828805         0.9319963728         1.4024769372
           6
AU Step:         53 Time:      438.2124028076
C         -5.3633193661         0.6923503900         0.3922388858
N         -1.6709890986         0.2120900652         0.1205748519
H         -6.1258192087         1.8107015454         2.0693765319
H         -6.6174081434        -0.1644026390        -1.1367228137
H         -0.9392201267        -0.7419432037        -1.2816978868
H         -0.5261929534         0.9213923920         1.3848322039
           6
AU Step:         54 Time:      446.4805613511
C         -5.3829291068         0.6949083231         0.3936766052
N         -1.6559580561         0.2101399578         0.1194660129
H         -6.1270318535         1.7935287924         2.0423961259
H         -6.6103031905        -0.1480863285        -1.1101374664
H         -0.9375694203        -0.7318875999        -1.2651209797
H         -0.5295511000         0.9114705308         1.3684269253
           6
AU Step:         55 Time:      454.7487198947
C         -5.4026871734         0.6974865426         0.3951247065
N         -1.6409889511         0.2081984120         0.1183614066
H         -6.1282400419         1.7760066818         2.0148714054
H         -6.6030285990        -0.1314541488        -1.0830148234
H         -0.9349589193        -0.7230718871        -1.2503574274
H         -0.5314148617         0.9024613263         1.3536594810
           6
AU Step:         56 Time:      463.0168784382
C         -5.4225511384         0.7000793017         0.3965802302
N         -1.6261264083         0.2062711444         0.1172643940
H         -6.1296018255         1.7583894802         1.9871828282
H         -6.5958545655        -0.1147022094        -1.0557056212
H         -0.9311809480        -0.7157876259        -1.2378388527
H         -0.5314491091         0.8945872183         1.3409203332
           6
AU Step:         57 Time:      471.2850369817
C         -5.4424752548         0.7026805651         0.3980398845
N         -1.6114114060         0.2043634654         0.1161780244
H         -6.1312948471         1.7409647652         1.9597631739
H         -6.5890860512        -0.0980544244        -1.0286079530
H         -0.9260411670        -0.7103060874        -1.2279652688
H         -0.5293412536         0.8880539397         1.3305716611
           6
AU Step:         58 Time:      479.5531955253
C         -5.4624109682         0.7052839875         0.3995001292
N         -1.5968791595         0.2024799588         0.1151049040
H         -6.1335150829         1.7240527210         1.9330956059
H         -6.5830610836        -0.0817612334        -1.0021660482
H         -0.9193683443        -0.7068626032        -1.2210825805
H         -0.5248177430         0.8830389883         1.3229264032
           6
AU Step:         59 Time:      487.8213540688
C         -5.4823078476         0.7078830112         0.4009572607
N         -1.5825570315         0.2006241956         0.1140470500
H         -6.1364741328         1.7080026802         1.9077082929
H         -6.5781465093        -0.0660967886        -0.9768655868
H         -0.9110234673        -0.7056413667        -1.2174602384
H         -0.5176598457         0.8796798962         1.3182276219
           6
AU Step:         60 Time:      496.0895126123
C         -5.5021150773         0.7104710538         0.4024075313
N         -1.5684626890         0.1987984869         0.1130057616
H         -6.1403947184         1.6931865204         1.8841644602
H         -6.5747305311        -0.0513538396        -0.9532247396
H         -0.9009067255        -0.7067623379        -1.2172718430
H         -0.5077164825         0.8780638188         1.3166304691
           6
AU Step:         61 Time:      504.3576711559
C         -5.5217837279         0.7130418014         0.4038473172
N         -1.5546026929         0.1970036956         0.1119815210
H         -6.1455038714         1.6799881284         1.8630465467
H         -6.5732111862        -0.0378355608        -0.9317796858
H         -0.8889608464        -0.7102720678        -1.2205814042
H         -0.4949117520         0.8782198437         1.3181891767
           6
AU Step:         62 Time:      512.6258296994
C         -5.5412700620         0.7155896372         0.4052733598
N         -1.5409715955         0.1952391128         0.1109739302
H         -6.1520235983         1.6687884513         1.8449336587
H         -6.5739803644        -0.0258438670        -0.9130639081
H         -0.8751693603        -0.7161398325        -1.2273372615
H         -0.4792451295         0.8801149976         1.3228508247
           6
AU Step:         63 Time:      520.8939882430
C         -5.5605402240         0.7181102520         0.4066831100
N         -1.5275513969         0.1935023822         0.1099816728
H         -6.1601594471         1.6599464981         1.8303728269
H         -6.5774039779        -0.0156644796        -0.8975817512
H         -0.8595483263        -0.7242596992        -1.2373744285
H         -0.4607826827         0.8836541575         1.3304564068
           6
AU Step:         64 Time:      529.1621467865
C         -5.5795771453         0.7206015457         0.4080752330
N         -1.5143107777         0.1917893951         0.1090024624
H         -6.1700881191         1.6537774748         1.8198458162
H         -6.5837998374        -0.0075495626        -0.8857777407
H         -0.8421290844        -0.7344581918        -1.2504245070
H         -0.4396372041         0.8886829298         1.3407479701
           6
AU Step:         65 Time:      537.4303053300
C         -5.5983923690         0.7230651779         0.4094504704
N         -1.5012024213         0.1900939343         0.1080328486
H         -6.1819460683         1.6505295472         1.8137336874
H         -6.5934157693        -0.0016989089        -0.8780035314
H         -0.8229249180        -0.7465063435        -1.2661303236