           6
ANG Step:          0 Time:        0.0000000000
C         -2.4616955000         0.3174073000         0.1798604000
N         -1.1964046000         0.1528225000         0.0867777000
H         -2.8765847000         0.8857645000         1.0242489000
H         -3.1247795000        -0.1109239000        -0.5850034000
H         -0.7717551000        -0.3733585000        -0.6895899000
H         -0.5447596000         0.5391159000         0.7839497000
           6
ANG Step:          1 Time:        8.2681585435
C         -2.4619103829         0.3174352454         0.1798762190
N         -1.1962268824         0.1527993882         0.0867646163
H         -2.8765575929         0.8857173624         1.0241778921
H         -3.1247312317        -0.1108865118        -0.5849380160
H         -0.7717453119        -0.3733512842        -0.6895770308
H         -0.5447538247         0.5391066032         0.7839357690
           6
ANG Step:          2 Time:       16.5363170871
C         -2.4625537108         0.3175189096         0.1799235792
N         -1.1956947890         0.1527301910         0.0867254432
H         -2.8764774111         0.8855772273         1.0239667404
H         -3.1245881113        -0.1107752586        -0.5847435295
H         -0.7717151923        -0.3733303530        -0.6895394540
H         -0.5447354482         0.5390791914         0.7838948728
           6
ANG Step:          3 Time:       24.8044756306
C         -2.4636215444         0.3176577799         0.1800021911
N         -1.1948114785         0.1526153194         0.0866604131
H         -2.8763475571         0.8853479180         1.0236210428
H         -3.1243551722        -0.1105928639        -0.5844249207
H         -0.7716624872        -0.3732978392        -0.6894802468
H         -0.5447013333         0.5390350975         0.7838296880
           6
ANG Step:          4 Time:       33.0726341742
C         -2.4651073912         0.3178510109         0.1801115817
N         -1.1935821542         0.1524554516         0.0865699051
H         -2.8761736579         0.8850357692         1.0231500583
H         -3.1240407394        -0.1103438431        -0.5839904467
H         -0.7715834821        -0.3732572697        -0.6894044663
H         -0.5446463027         0.5389766759         0.7837446411
           6
ANG Step:          5 Time:       41.3407927177
C         -2.4670023151         0.3180974391         0.1802510937
N         -1.1920139710         0.1522515199         0.0864544458
H         -2.8759634832         0.8846495516         1.0225666472
H         -3.1236563353        -0.1100344580        -0.5834515487
H         -0.7714730580        -0.3732134820        -0.6893190919
H         -0.5445632394         0.5389071669         0.7836458043
           6
ANG Step:          6 Time:       49.6089512612
C         -2.4692950779         0.3183956032         0.1804199009
N         -1.1901159175         0.1520046928         0.0863146973
H         -2.8757268593         0.8842003890         1.0218871209
H         -3.1232165322        -0.1096726648        -0.5828227430
H         -0.7713247752        -0.3731725538        -0.6892328985
H         -0.5444431910         0.5388306511         0.7835408031
           6
ANG Step:          7 Time:       57.8771098048
C         -2.4719722544         0.3187437844         0.1806170112
N         -1.1878987174         0.1517163431         0.0861514545
H         -2.8754755973         0.8837014334         1.0211310992
H         -3.1227388231        -0.1092680665        -0.5821214157
H         -0.7711309455        -0.3731414843        -0.6891564299
H         -0.5442754982         0.5387519896         0.7834387245
           6
ANG Step:          8 Time:       66.1452683483
C         -2.4750185947         0.3191399955         0.1808413038
N         -1.1853745324         0.1513880470         0.0859656206
H         -2.8752231745         0.8831682530         1.0203211818
H         -3.1222432756        -0.1088317013        -0.5813677729
H         -0.7708828594        -0.3731285809        -0.6891014984
H         -0.5440480411         0.5386767297         0.7833497885
           6
ANG Step:          9 Time:       74.4134268919
C         -2.4784171808         0.3195820283         0.1810915289
N         -1.1825568290         0.1510215832         0.0857581720
H         -2.8749845921         0.8826180942         1.0194828212
H         -3.1217523286        -0.1083760425        -0.5805843943
H         -0.7705709006        -0.3731429987        -0.6890810572
H         -0.5437474573         0.5386108541         0.7832854022
           6
ANG Step:         10 Time:       82.6815854354
C         -2.4821496584         0.3200675148         0.1813663217
N         -1.1794601931         0.1506188158         0.0855302051
H         -2.8747762212         0.8820699042         1.0186438582
H         -3.1212904464        -0.1079147708        -0.5797960856
H         -0.7701846737        -0.3731943240        -0.6891091751
H         -0.5433593301         0.5385609928         0.7832576273
           6
ANG Step:         11 Time:       90.9497439789
C         -2.4861965004         0.3205939097         0.1816642489
N         -1.1761001084         0.1501817645         0.0852828628
H         -2.8746154729         0.8815440581         1.0178341055
H         -3.1208837688        -0.1074625194        -0.5790295170
H         -0.7697132524        -0.3732928019        -0.6892004960
H         -0.5428685518         0.5385339136         0.7832791585
           6
ANG Step:         12 Time:       99.2179025225
C         -2.4905372961         0.3211585533         0.1819838095
N         -1.1724927357         0.1497125354         0.0850173351
H         -2.8745204934         0.8810619410         1.0170849456
H         -3.1205596242        -0.1070347104        -0.5783127427
H         -0.7691453699        -0.3734488656        -0.6893699563
H         -0.5422595559         0.5385365134         0.7833629576
           6
ANG Step:         13 Time:      107.4860610660
C         -2.4951510025         0.3217587091         0.1823234526
N         -1.1686547012         0.1492132995         0.0847348447
H         -2.8745098912         0.8806455542         1.0164288322
H         -3.1203460866        -0.1066473481        -0.5776747119
H         -0.7684696790        -0.3736729354        -0.6896324847
H         -0.5415167146         0.5385756523         0.7835219363
           6
ANG Step:         14 Time:      115.7542196095
C         -2.5000162104         0.3223915881         0.1826816053
N         -1.1646028947         0.1486862536         0.0844366354
H         -2.8746024006         0.8803172368         1.0158985905
H         -3.1202714837        -0.1063165927        -0.5771448394
H         -0.7676749265        -0.3739751482        -0.6900025650
H         -0.5406246280         0.5386579984         0.7837686262
           6
ANG Step:         15 Time:      124.0223781531
C         -2.5051113949         0.3230543950         0.1830566800
N         -1.1603542782         0.1481336135         0.0841239493
H         -2.8748164684         0.8800990773         1.0155268790
H         -3.1203638114        -0.1060585887        -0.5767522866
H         -0.7667502435        -0.3743651364        -0.6904938569
H         -0.5395685059         0.5387897577         0.7841148500
           6
ANG Step:         16 Time:      132.2905366966
C         -2.5104151650         0.3237443452         0.1834471082
N         -1.1559256938         0.1475575730         0.0837980284
H         -2.8751699662         0.8800125630         1.0153453811
H         -3.1206501765        -0.1058889901        -0.5765254689
H         -0.7656853568        -0.3748517280        -0.6911188755
H         -0.5383344938         0.5389766174         0.7845712809
           6
ANG Step:         17 Time:      140.5586952402
C         -2.5159064729         0.3244587050         0.1838513378
N         -1.1513337185         0.1469602769         0.0834601001
H         -2.8756797527         0.8800780728         1.0153841541
H         -3.1211562481        -0.1058225881        -0.5764913431
H         -0.7644707815        -0.3754426403        -0.6918885315
H         -0.5369099993         0.5392234803         0.7851471738
           6
ANG Step:         18 Time:      148.8268537837
C         -2.5215648232         0.3251947928         0.1842678680
N         -1.1465945061         0.1463438442         0.0831113440
H         -2.8763613772         0.8803143273         1.0156709109
H         -3.1219056675        -0.1058729343        -0.5766747621
H         -0.7630980740        -0.3761444460        -0.6928117589
H         -0.5352840233         0.5395342546         0.7858500897
           6
ANG Step:         19 Time:      157.0950123272
C         -2.5273704459         0.3259500338         0.1846952566
N         -1.1417236668         0.1457102957         0.0827529071
H         -2.8772288055         0.8807377937         1.0162303252
H         -3.1229195201        -0.1060518801        -0.5770979209
H         -0.7615600017        -0.3769622160        -0.6938951324
H         -0.5334474016         0.5399119996         0.7866853729
           6
ANG Step:         20 Time:      165.3631708708
C         -2.5333044325         0.3267219702         0.1851321062
N         -1.1367361719         0.1450615939         0.0823858885
H         -2.8782943631         0.8813592176         1.0170853928
H         -3.1242156660        -0.1063663625        -0.5777814916
H         -0.7598509737        -0.3779027377        -0.6951406084
H         -0.5313928097         0.5403617058         0.7876540338
           6
ANG Step:         21 Time:      173.6313294143
C         -2.5388747371         0.3274466283         0.1855421381
N         -1.1319366395         0.1444373498         0.0820327249
H         -2.8804513555         0.8826909532         1.0189213868
H         -3.1268775656        -0.1070719557        -0.5792645996
H         -0.7578071520        -0.3790238079        -0.6966264929
H         -0.5289375611         0.5408962690         0.7888087467
           6
ANG Step:         22 Time:      181.8994879579
C         -2.5467144845         0.3284665682         0.1861191663
N         -1.1253543601         0.1435812492         0.0815484121
H         -2.8995088352         0.8946167199         1.0353698112
H         -3.1504775070        -0.1134553487        -0.5925835685
H         -0.7424931322        -0.3874011800        -0.7077348071
H         -0.5105514109         0.5448811140         0.7974355260
           6
ANG Step:         23 Time:      190.1676465014
C         -2.5546577352         0.3294999620         0.1867038303
N         -1.1186790314         0.1427130685         0.0810572552
H         -2.9186400578         0.9065748512         1.0518611641
H         -3.1741623014        -0.1198504564        -0.6059339747
H         -0.7271227228        -0.3957578657        -0.7188010926
H         -0.4921227481         0.5488321727         0.8060129064
           6
ANG Step:         24 Time:      198.4358050449
C         -2.5627101597         0.3305475431         0.1872965458
N         -1.1119083089         0.1418325028         0.0805590806
H         -2.9377245726         0.9184081288         1.0681641591
H         -3.1977435135        -0.1261401945        -0.6191072661
H         -0.7118063295        -0.4039698648        -0.7296421380
H         -0.4738150639         0.5526610813         0.8143778667
           6
ANG Step:         25 Time:      206.7039635885
C         -2.5708758989         0.3316098476         0.1878976170
N         -1.1050405433         0.1409393367         0.0800537649
H         -2.9566546968         0.9299797091         1.0840777116
H         -3.2210544615        -0.1322233798        -0.6319225641
H         -0.6966444015        -0.4119268903        -0.7400954157
H         -0.4557758469         0.5562898131         0.8223861764
           6
ANG Step:         26 Time:      214.9721221320
C         -2.5791576055         0.3326872248         0.1885072373
N         -1.0980748372         0.1400334483         0.0795412423
H         -2.9753352589         0.9411720630         1.0994293140
H         -3.2439494414        -0.1380138235        -0.6442251038
H         -0.6817272546        -0.4195321474        -0.7500188580
H         -0.4381365159         0.5596504476         0.8299121211
           6
ANG Step:         27 Time:      223.2402806756
C         -2.5875565826         0.3337798414         0.1891255027
N         -1.0910110337         0.1391148162         0.0790215007
H         -2.9936828398         0.9518854045         1.1140725246
H         -3.2663022421        -0.1434389766        -0.6558838847
H         -0.6671353016        -0.4267017419        -0.7592899250
H         -0.4210129438         0.5626846387         0.8368476247
           6
ANG Step:         28 Time:      231.5084392191
C         -2.5960729666         0.3348877122         0.1897524215
N         -1.0838496660         0.1381835096         0.0784945806
H         -3.0116247878         0.9620357953         1.1278841644
H         -3.2880043415        -0.1484384333        -0.6667890513
H         -0.6529395055        -0.4333638227        -0.7678042942
H         -0.4045063027         0.5653429292         0.8431010273
           6
ANG Step:         29 Time:      239.7765977626
C         -2.6047059154         0.3360107252         0.1903879283
N         -1.0765918868         0.1372396787         0.0779605687
H         -3.0290981825         0.9715532442         1.1407615463
H         -3.3089630420        -0.1529624191        -0.6768493346
H         -0.6392019882        -0.4394576150        -0.7754743304
H         -0.3887041055         0.5675840072         0.8485956877
           6
ANG Step:         30 Time:      248.0447563062
C         -2.6134537888         0.3371486650         0.1910318982
N         -1.0692393895         0.1362835441         0.0774195910
H         -3.0460488119         0.9803799134         1.1526198643
H         -3.3290996441        -0.1569703606        -0.6859896696
H         -0.6259767073        -0.4449324324        -0.7822274944
H         -0.3736813208         0.5693739552         0.8532685423
           6
ANG Step:         31 Time:      256.3129148497
C         -2.6223143153         0.3383012341         0.1916841604
N         -1.0617943314         0.1353153860         0.0768718066
H         -3.0624301783         0.9884684599         1.1633897943
H         -3.3483477133        -0.1604295833        -0.6941490049
H         -0.6133101419        -0.4497467148        -0.7880048139
H         -0.3595014865         0.5706855291         0.8570687159
           6
ANG Step:         32 Time:      264.5810733933
C         -2.6312847443         0.3394680730         0.1923445097
N         -1.0542592655         0.1343355362         0.0763174029
H         -3.0782025510         0.9957805449         1.1730153262
H         -3.3666514782        -0.1633141531        -0.7012783251
H         -0.6012419431        -0.4538671476        -0.7927595020
H         -0.3462177563         0.5714974943         0.8599562608
           6
ANG Step:         33 Time:      272.8492319368
C         -2.6403619689         0.3406487766         0.1930127141
N         -1.0466370907         0.1333443711         0.0757565923
H         -3.0933321004         1.0022855282         1.1814518584
H         -3.3839644083        -0.1656038729        -0.7073389091
H         -0.5898055169        -0.4572678900        -0.7964557658
H         -0.3338738203         0.5717940487         0.8619010729
           6
ANG Step:         34 Time:      281.1173904803
C         -2.6495426318         0.3418429075         0.1936885237
N         -1.0389310138         0.1323423073         0.0751896100
H         -3.1077901312         1.0079593597         1.1886645659
H         -3.4002479655        -0.1672834325        -0.7123008487
H         -0.5790285241        -0.4599299343        -0.7990678299
H         -0.3225046919         0.5715643472         0.8628820069
           6
ANG Step:         35 Time:      289.3855490239
C         -2.6588232045         0.3430500068         0.1943716759
N         -1.0311445320         0.1313297989         0.0746167122
H         -3.1215524234         1.0127836574         1.1946270409
H         -3.4154705462        -0.1683417094        -0.7161418145
H         -0.5689332819        -0.4618406054        -0.8005791845
H         -0.3121373287         0.5708021335         0.8628861993
           6
ANG Step:         36 Time:      297.6537075674
C         -2.6682000449         0.3442696008         0.1950618999
N         -1.0232814317         0.1303073381         0.0740381763
H         -3.1345986762         1.0167449608         1.1993201914
H         -3.4296066028        -0.1687712154        -0.7188460560
H         -0.5595370642        -0.4629932066        -0.8009820605
H         -0.3027910851         0.5695054858         0.8619085934
           6
ANG Step:         37 Time:      305.9218661109
C         -2.6776694363         0.3455012068         0.1957589194
N         -1.0153458062         0.1292754569         0.0734543023
H         -3.1469120509         1.0198341496         1.2027313725
H         -3.4426359303        -0.1685676551        -0.7204036219
H         -0.5508522914        -0.4633868150        -0.8002771267
H         -0.2944779907         0.5676766687         0.8599516752
           6
ANG Step:         38 Time:      314.1900246545
C         -2.6872276067         0.3467443348         0.1964624539
N         -1.0073420915         0.1282347319         0.0728654154
H         -3.1584788096         1.0220460016         1.2048537386
H         -3.4545431154        -0.1677296094        -0.7208097787
H         -0.5428866111        -0.4630262254        -0.7984734085
H         -0.2872028529         0.5653221013         0.8570254060
           6
ANG Step:         39 Time:      322.4581831980
C         -2.6968707327         0.3479984888         0.1971722190
N         -0.9992751191         0.1271857917         0.0722718700
H         -3.1692880416         1.0233788891         1.2056857968
H         -3.4653171325        -0.1662583191        -0.7200646129
H         -0.5356428654        -0.4619220422        -0.7955884296
H         -0.2809631820         0.5624524350         0.8531473528
           6
ANG Step:         40 Time:      330.7263417416
C         -2.7065949280         0.3492631650         0.1978879258
N         -0.9911501880         0.1261293257         0.0716740546
H         -3.1793314765         1.0238346022         1.2052311508
H         -3.4749510818        -0.1641575672        -0.7181728083
H         -0.5291189418        -0.4600909224        -0.7916485709
H         -0.2757489340         0.5590827424         0.8483430216
           6
ANG Step:         41 Time:      338.9945002851
C         -2.7163962170         0.3505378485         0.1986092782
N         -0.9829731541         0.1250660959         0.0710723986
H         -3.1886033762         1.0234182943         1.2034984277
H         -3.4834420637        -0.1614336563        -0.7151435887
H         -0.5233075102        -0.4575559642        -0.7866896483
H         -0.2715420741         0.5552328163         0.8426463841
           6
ANG Step:         42 Time:      347.2626588286
C         -2.7262704941         0.3518220081         0.1993359707
N         -0.9747505381         0.1239969511         0.0704673796
H         -3.1971005146         1.0221385487         1.2005013862
H         -3.4907911882        -0.1580954758        -0.7109908282
H         -0.5181956379        -0.4543472488        -0.7807577078
H         -0.2683159567         0.5509275796         0.8361006055
           6
ANG Step:         43 Time:      355.5308173722
C         -2.7362134682         0.3531150892         0.2000676836
N         -0.9664896518         0.1229228431         0.0698595327
H         -3.2048222340         1.0200075661         1.1962592093
H         -3.4970037218        -0.1541546664        -0.7057333257
H         -0.5137642943        -0.4505025215        -0.7739100284
H         -0.2660345274         0.5461975997         0.8287589540
           6
ANG Step:         44 Time:      363.7989759157
C         -2.7462205918         0.3544165046         0.2008040785
N         -0.9581987405         0.1218448459         0.0692494602
H         -3.2117705867         1.0170414729         1.1907969828
H         -3.5020893705        -0.1496258766        -0.6993952539
H         -0.5099877477        -0.4460680099        -0.7662163177
H         -0.2646513651         0.5410796947         0.8206858885
           6
ANG Step:         45 Time:      372.0671344593
C         -2.7562869715         0.3557256244         0.2015447897
N         -0.9498871404         0.1207641755         0.0686378440
H         -3.2179505686         1.0132607717         1.1841463774
H         -3.5060627182        -0.1445271314        -0.6920067824
H         -0.5068328699        -0.4410993478        -0.7577600698
H         -0.2641085884         0.5356176330         0.8119582821
           6
ANG Step:         46 Time:      380.3352930028
C         -2.7664072624         0.3570417617         0.2022894183
N         -0.9415654418         0.1196822132         0.0680254571
H         -3.2233704365         1.0086909191         1.1763465375
H         -3.5089438070        -0.1388803017        -0.6836049070
H         -0.5042583910        -0.4356625686        -0.7486400034
H         -0.2643356878         0.5298628487         0.8026667165
           6
ANG Step:         47 Time:      388.6034515463
C         -2.7765755409         0.3583641580         0.2030375212
N         -0.9332456542         0.1186005284         0.0674131778
H         -3.2280421270         1.0033630598         1.1674452046
H         -3.5107588858        -0.1327116987        -0.6742344808
H         -0.5022141345        -0.4298351005        -0.7389715085
H         -0.2652483477         0.5238751672         0.7929167671
           6
ANG Step:         48 Time:      396.8716100899
C         -2.7867851562         0.3596919656         0.2037886006
N         -0.9249413613         0.1175208995         0.0668020005
H         -3.2319817732         0.9973149152         1.1575000839
H         -3.5115413278        -0.1260527975        -0.6639494687
H         -0.5006402998        -0.4237066787        -0.7288879643
H         -0.2667473458         0.5177234651         0.7828301864
           6
ANG Step:         49 Time:      405.1397686334
C         -2.7970285605         0.3610242290         0.2045420884
N         -0.9166678511         0.1164453319         0.0661930443
H         -3.2352103243         0.9905918285         1.1465804693
H         -3.5113327184        -0.1189411001        -0.6528144273
H         -0.4994668737        -0.4173800819        -0.7185417808
H         -0.2687176490         0.5114861965         0.7725458644
           6
ANG Step:         50 Time:      413.4079271770
C         -2.8072971168         0.3623598677         0.2052973279
N         -0.9084422014         0.1153760720         0.0655875552
H         -3.2377542584         0.9832479463         1.1347691277
H         -3.5101841046        -0.1114211423        -0.6409061876
H         -0.4986132889        -0.4109715603        -0.7081049463
H         -0.2710278944         0.5052516581         0.7622203638
           6
ANG Step:         51 Time:      421.6760857205
C         -2.8175808881         0.3636976703         0.2060535433
N         -0.9002832906         0.1143156186         0.0649868983
H         -3.2396463739         0.9753474622         1.1221644447
H         -3.5081573918        -0.1035456888        -0.6283156801
H         -0.4979884932        -0.4046107930        -0.6977687534
H         -0.2735304926         0.4991178110         0.7520277963
           6
ANG Step:         52 Time:      429.9442442640
C         -2.8278684091         0.3650363580         0.2068097637
N         -0.8922116954         0.1132667543         0.0643925194
H         -3.2409266555         0.9669655848         1.1088829832
H         -3.5053268766        -0.0953774012        -0.6151496679
H         -0.4974916333        -0.3984403425        -0.6877421927
H         -0.2760626905         0.4931912390         0.7421588308
           6
ANG Step:         53 Time:      438.2124028076
C         -2.8381463709         0.3663760467         0.2075638787
N         -0.8842493468         0.1122332287         0.0638054635
H         -3.2416439092         0.9581819894         1.0950668967
H         -3.5017815694        -0.0869981296        -0.6015278055
H         -0.4970138849        -0.3926194335        -0.6782453100
H         -0.2784493182         0.4875798540         0.7328216400
           6
ANG Step:         54 Time:      446.4805613511
C         -2.8485233988         0.3677296466         0.2083246870
N         -0.8762952616         0.1112012763         0.0632186912
H         -3.2422856132         0.9490945599         1.0807894807
H         -3.4980217903        -0.0783639099        -0.5874594456
H         -0.4961403687        -0.3872982371        -0.6694731886
H         -0.2802263729         0.4823294312         0.7241403405
           6
ANG Step:         55 Time:      454.7487198947
C         -2.8589789173         0.3690939816         0.2090909892
N         -0.8683739525         0.1101738545         0.0626341588
H         -3.2429249590         0.9398222583         1.0662240260
H         -3.4941722423        -0.0695625395        -0.5731067611
H         -0.4947589510        -0.3826331628        -0.6616606532
H         -0.2812126331         0.4775619655         0.7163257455
           6
ANG Step:         56 Time:      463.0168784382
C         -2.8694904749         0.3704660107         0.2098612192
N         -0.8605090335         0.1091539884         0.0620536447
H         -3.2436455838         0.9304996367         1.0515718620
H         -3.4903759073        -0.0606977950        -0.5586553537
H         -0.4927597348        -0.3787784978        -0.6550361088
H         -0.2812307560         0.4733951670         0.7095844788
           6
ANG Step:         57 Time:      471.2850369817
C         -2.8800338632         0.3718425400         0.2106336350
N         -0.8527221897         0.1081444882         0.0614787627
H         -3.2445414923         0.9212788747         1.0370620059
H         -3.4867941637        -0.0518881666        -0.5443158853
H         -0.4900398798        -0.3758777926        -0.6498112332
H         -0.2801153270         0.4699379049         0.7041081975
           6
ANG Step:         58 Time:      479.5531955253
C         -2.8905833883         0.3732202118         0.2114063632
N         -0.8450320561         0.1071477794         0.0609108918
H         -3.2457163904         0.9123294063         1.0229501366
H         -3.4836058882        -0.0432661813        -0.5303234319
H         -0.4865087741        -0.3740555792        -0.6461690714
H         -0.2777215882         0.4672841069         0.7000625012
           6
ANG Step:         59 Time:      487.8213540688
C         -2.9011123634         0.3745955559         0.2121774440
N         -0.8374531124         0.1061657518         0.0603510996
H         -3.2472822522         0.9038360906         1.0095157492
H         -3.4810052075        -0.0349769141        -0.5169350044
H         -0.4820928554        -0.3734093287        -0.6442522105
H         -0.2739337922         0.4655065519         0.6975760132
           6
ANG Step:         60 Time:      496.0895126123
C         -2.9115938980         0.3759650890         0.2129448941
N         -0.8299947076         0.1051996284         0.0598000735
H         -3.2493569367         0.8959957165         0.9970568896
H         -3.4791975497        -0.0271752815        -0.5044248069
H         -0.4767393062        -0.3740025211        -0.6441525160
H         -0.2686719909         0.4646513606         0.6967308364
           6
ANG Step:         61 Time:      504.3576711559
C         -2.9220020996         0.3773254701         0.2137067960
N         -0.8226603135         0.1042498657         0.0592580687
H         -3.2520605840         0.8890114282         0.9858817711
H         -3.4783935470        -0.0200217164        -0.4930765732
H         -0.4704178192        -0.3758597902        -0.6459038603
H         -0.2618960194         0.4647339254         0.6975556689
           6
ANG Step:         62 Time:      512.6258296994
C         -2.9323138235         0.3786737267         0.2144614252
N         -0.8154470474         0.1033160887         0.0587248746
H         -3.2555106749         0.8830848144         0.9762968435
H         -3.4788005785        -0.0136759854        -0.4831726101
H         -0.4631196792        -0.3789648775        -0.6494789061
H         -0.2536055998         0.4657367977         0.7000225068
           6
ANG Step:         63 Time:      520.8939882430
C         -2.9425111540         0.3800075786         0.2152074329
N         -0.8083453842         0.1023970505         0.0581997946
H         -3.2598159807         0.8784058543         0.9685915832
H         -3.4806122768        -0.0082892856        -0.4749798056
H         -0.4548533840        -0.3832617259        -0.6547903461
H         -0.2438356938         0.4676096405         0.7040472075
           6
ANG Step:         64 Time:      529.1621467865
C         -2.9525850588         0.3813259145         0.2159441127
N         -0.8013387503         0.1014905767         0.0576816188
H         -3.2650700076         0.8751413477         0.9630209291
H         -3.4839968199        -0.0039950565        -0.4687333923
H         -0.4456355181        -0.3886585358        -0.6616961502
H         -0.2326459885         0.4702707521         0.7094932682
           6
ANG Step:         65 Time:      537.4303053300
C         -2.9625416464         0.3826296125         0.2166718570
N         -0.7944021068         0.1005933775         0.0571685213
H         -3.2713449641         0.8734226185         0.9597865298
H         -3.4890853519        -0.0008990238        -0.4646194579