           6
AU Step:          0 Time:        0.0000000000
C          0.0000000000         0.0000000000         0.0000000000
N          0.0000000000         0.0000000000         0.0000000000
H          0.0000000000         0.0000000000         0.0000000000
H          0.0000000000         0.0000000000         0.0000000000
H          0.0000000000         0.0000000000         0.0000000000
H          0.0000000000         0.0000000000         0.0000000000
           6
AU Step:          1 Time:        8.2681585435
C         -0.0000980740         0.0000127544         0.0000072199
N          0.0000811153        -0.0000105488        -0.0000059718
H          0.0000122607        -0.0000214010        -0.0000322444
H          0.0000218714         0.0000169863         0.0000296973
H          0.0000045606         0.0000032166         0.0000057648
H          0.0000027600        -0.0000041950        -0.0000062655
           6
AU Step:          2 Time:       16.5363170871
C         -0.0001955470         0.0000254306         0.0000143958
N          0.0001617486        -0.0000210349        -0.0000119081
H          0.0000240023        -0.0000422191        -0.0000636352
H          0.0000429751         0.0000335573         0.0000586352
H          0.0000094650         0.0000061075         0.0000110602
H          0.0000059986        -0.0000081715        -0.0000121227
           6
AU Step:          3 Time:       24.8044756306
C         -0.0002918278         0.0000379517         0.0000214844
N          0.0002414263        -0.0000313965        -0.0000177745
H          0.0000347121        -0.0000618764        -0.0000933282
H          0.0000625522         0.0000493010         0.0000860603
H          0.0000150515         0.0000083518         0.0000154260
H          0.0000101873        -0.0000117152        -0.0000171681
           6
AU Step:          4 Time:       33.0726341742
C         -0.0003863454         0.0000502431         0.0000284439
N          0.0003196917        -0.0000415740        -0.0000235374
H          0.0000438909        -0.0000798074        -0.0001204935
H          0.0000798612         0.0000638131         0.0001112343
H          0.0000216475         0.0000096401         0.0000184163
H          0.0000157810        -0.0000146196        -0.0000210137
           6
AU Step:          5 Time:       41.3407927177
C         -0.0004785576         0.0000622346         0.0000352339
N          0.0003961123        -0.0000515115        -0.0000291645
H          0.0000510589        -0.0000954650        -0.0001443251
H          0.0000941882         0.0000767005         0.0001334421
H          0.0000295643         0.0000096811         0.0000196063
H          0.0000232111        -0.0000166873        -0.0000232941
           6
AU Step:          6 Time:       49.6089512612
C         -0.0005679514         0.0000738626         0.0000418161
N          0.0004702802        -0.0000611586        -0.0000346250
H          0.0000557543        -0.0001083484        -0.0001640506
H          0.0001048508         0.0000875812         0.0001520040
H          0.0000390957         0.0000082277         0.0000185886
H          0.0000328823        -0.0000177333        -0.0000236645
           6
AU Step:          7 Time:       57.8771098048
C         -0.0006540682         0.0000850672         0.0000481568
N          0.0005418328        -0.0000704686        -0.0000398916
H          0.0000575598        -0.0001179497        -0.0001789513
H          0.0001112212         0.0000961031         0.0001662701
H          0.0000505010         0.0000050251         0.0000150161
H          0.0000451567        -0.0000175897        -0.0000218286
           6
AU Step:          8 Time:       66.1452683483
C         -0.0007365090         0.0000957923         0.0000542266
N          0.0006104567        -0.0000793953        -0.0000449433
H          0.0000561108        -0.0001238011        -0.0001883608
H          0.0001127340         0.0001019381         0.0001756467
H          0.0000640004        -0.0000001731         0.0000086134
H          0.0000603431        -0.0000161286        -0.0000175213
           6
AU Step:          9 Time:       74.4134268919
C         -0.0008149189         0.0001059944         0.0000599976
N          0.0006758749        -0.0000879057        -0.0000497581
H          0.0000510766        -0.0001255164        -0.0001916801
H          0.0001088868         0.0001047844         0.0001796082
H          0.0000797868        -0.0000075129        -0.0000008773
H          0.0000787041        -0.0000132261        -0.0000105319
           6
AU Step:         10 Time:       82.6815854354
C         -0.0008889999         0.0001156351         0.0000654489
N          0.0007378568        -0.0000959722        -0.0000543171
H          0.0000421820        -0.0001227380        -0.0001884108
H          0.0000992567         0.0001043950         0.0001776872
H          0.0000980097        -0.0000171191        -0.0000136491
H          0.0001004390        -0.0000087926        -0.0000007135
           6
AU Step:         11 Time:       90.9497439789
C         -0.0009585168         0.0001246810         0.0000705649
N          0.0007962224        -0.0001035673        -0.0000586094
H          0.0000292239        -0.0001151873        -0.0001781484
H          0.0000835164         0.0001005709         0.0001695125
H          0.0001187689        -0.0000290883        -0.0000298014
H          0.0001256793        -0.0000027974         0.0000120369
           6
AU Step:         12 Time:       99.2179025225
C         -0.0010232966         0.0001331102         0.0000753320
N          0.0008508412        -0.0001106736        -0.0000626260
H          0.0000120656        -0.0001026786        -0.0001605909
H          0.0000614449         0.0000931556         0.0001548235
H          0.0001421122        -0.0000434406        -0.0000493665
H          0.0001544843         0.0000047698         0.0000277440
           6
AU Step:         13 Time:      107.4860610660
C         -0.0010832250         0.0001409079         0.0000797422
N          0.0009016299        -0.0001172807        -0.0000663608
H         -0.0000093601        -0.0000851028        -0.0001355735
H          0.0000329279         0.0000820646         0.0001334649
H          0.0001680383        -0.0000601422        -0.0000722928
H          0.0001868352         0.0000138830         0.0000463587
           6
AU Step:         14 Time:      115.7542196095
C         -0.0011382470         0.0001480675         0.0000837913
N          0.0009485502        -0.0001233836        -0.0000698115
H         -0.0000350348        -0.0000624499        -0.0001030728
H         -0.0000020255         0.0000672819         0.0001054123
H          0.0001964925        -0.0000791029        -0.0000984353
H          0.0002226361         0.0000244674         0.0000677566
           6
AU Step:         15 Time:      124.0223781531
C         -0.0011883647         0.0001545895         0.0000874796
N          0.0009916073        -0.0001289826        -0.0000729783
H         -0.0000648599        -0.0000348173        -0.0000632193
H         -0.0000432760         0.0000488653         0.0000707800
H          0.0002273627        -0.0001001732        -0.0001275690
H          0.0002617104         0.0000364109         0.0000917252
           6
AU Step:         16 Time:      132.2905366966
C         -0.0012336327         0.0001604808         0.0000908114
N          0.0010308455        -0.0001340858        -0.0000758629
H         -0.0000986538        -0.0000024003        -0.0000163102
H         -0.0000905576         0.0000269695         0.0000298199
H          0.0002604908        -0.0001231343        -0.0001593797
H          0.0003038070         0.0000495647         0.0001179712
           6
AU Step:         17 Time:      140.5586952402
C         -0.0012741531         0.0001657533         0.0000937942
N          0.0010663432        -0.0001387017        -0.0000784725
H         -0.0001361513         0.0000344848         0.0000372007
H         -0.0001434742         0.0000018348        -0.0000170608
H          0.0002956678        -0.0001477284        -0.0001934582
H          0.0003485996         0.0000637253         0.0001461388
           6
AU Step:         18 Time:      148.8268537837
C         -0.0013100722         0.0001704251         0.0000964408
N          0.0010982110        -0.0001428445        -0.0000808161
H         -0.0001770216         0.0000753911         0.0000966982
H         -0.0002015020        -0.0000262029        -0.0000693181
H          0.0003326361        -0.0001736531        -0.0002293090
H          0.0003956964         0.0000786821         0.0001757813
           6
AU Step:         19 Time:      157.0950123272
C         -0.0013415712         0.0001745218         0.0000987628
N          0.0011265841        -0.0001465321        -0.0000829031
H         -0.0002208965         0.0001194073         0.0001616432
H         -0.0002639804        -0.0000563877        -0.0001264741
H          0.0003710699        -0.0002009329        -0.0002661347
H          0.0004446775         0.0000945589         0.0002061499
           6
AU Step:         20 Time:      165.3631708708
C         -0.0013146797         0.0001710268         0.0000967794
N          0.0011184353        -0.0001454689        -0.0000823005
H         -0.0003682644         0.0002232018         0.0003075273
H         -0.0004523149        -0.0001165715        -0.0002476023
H          0.0004288656        -0.0002355932        -0.0003121326
H          0.0005153725         0.0001124797         0.0002426535
           6
AU Step:         21 Time:      173.6313294143
C         -0.0018346106         0.0002386760         0.0001350383
N          0.0015269425        -0.0001985977        -0.0001123528
H         -0.0042312389         0.0026442166         0.0036468380
H         -0.0052379396        -0.0014139025        -0.0029522829
H          0.0034620317        -0.0018944699        -0.0025119203
H          0.0041568292         0.0009013986         0.0019509244
           6
AU Step:         22 Time:      181.8994879579
C         -0.0018036389         0.0002346495         0.0001327551
N          0.0015150440        -0.0001970463        -0.0001114741
H         -0.0043641029         0.0027293881         0.0037642697
H         -0.0054035733        -0.0014602929        -0.0030477049
H          0.0035065346        -0.0019123234        -0.0025340540
H          0.0042070985         0.0009068939         0.0019660454
           6
AU Step:         23 Time:      190.1676465014
C         -0.0018279430         0.0002378083         0.0001345478
N          0.0015365788        -0.0001998421        -0.0001130582
H         -0.0043671924         0.0027188186         0.0037476505
H         -0.0054014329        -0.0014495903        -0.0030310573
H          0.0035068058        -0.0018934250        -0.0025035112
H          0.0041981316         0.0008890739         0.0019361254
           6
AU Step:         24 Time:      198.4358050449
C         -0.0018533684         0.0002411121         0.0001364228
N          0.0015585700        -0.0002026973        -0.0001146762
H         -0.0043442114         0.0026746446         0.0036816210
H         -0.0053587108        -0.0014139446        -0.0029699066
H          0.0034829811        -0.0018477529        -0.0024334583
H          0.0041536267         0.0008522392         0.0018710935
           6
AU Step:         25 Time:      206.7039635885
C         -0.0018795702         0.0002445171         0.0001383546
N          0.0015808522        -0.0002055911        -0.0001163158
H         -0.0042980487         0.0026014016         0.0035728984
H         -0.0052802900        -0.0013568866        -0.0028703994
H          0.0034373563        -0.0017784161        -0.0023285971
H          0.0040772491         0.0007987261         0.0017752131
           6
AU Step:         26 Time:      214.9721221320
C         -0.0019062240         0.0002479811         0.0001403195
N          0.0016032549        -0.0002085013        -0.0001179644
H         -0.0042314772         0.0025033244         0.0034277271
H         -0.0051707955        -0.0012816884        -0.0027382357
H          0.0033722211        -0.0016884306        -0.0021934972
H          0.0039726117         0.0007307836         0.0016526157
           6
AU Step:         27 Time:      223.2402806756
C         -0.0019330423         0.0002514658         0.0001422963
N          0.0016256146        -0.0002114061        -0.0001196097
H         -0.0041470704         0.0023842516         0.0032517443
H         -0.0050344763        -0.0011912966        -0.0025785476
H          0.0032897871        -0.0015806469        -0.0020324721
H          0.0038431709         0.0006505216         0.0015071930
           6
AU Step:         28 Time:      231.5084392191
C         -0.0019597799         0.0002549394         0.0001442666
N          0.0016477816        -0.0002142857        -0.0001212405
H         -0.0040471707         0.0022475882         0.0030499501
H         -0.0048751622        -0.0010883136        -0.0023958756
H          0.0031921444        -0.0014577071        -0.0018495106
H          0.0036921677         0.0005598867         0.0013425372
           6
AU Step:         29 Time:      239.7765977626
C         -0.0019862339         0.0002583756         0.0001462152
N          0.0016696234        -0.0002171230        -0.0001228469
H         -0.0039338855         0.0020963168         0.0028267297
H         -0.0046962614        -0.0009750058        -0.0021941954
H          0.0030812365        -0.0013220298        -0.0016482448
H          0.0035225966         0.0004606549         0.0011619164
           6
AU Step:         30 Time:      248.0447563062
C         -0.0020122409         0.0002617532         0.0001481299
N          0.0016910251        -0.0002199030        -0.0001244208
H         -0.0038090914         0.0019330257         0.0025858957
H         -0.0045007750        -0.0008533276        -0.0019769601
H          0.0029588510        -0.0011758108        -0.0014319502
H          0.0033371973         0.0003544336         0.0009682750
           6
AU Step:         31 Time:      256.3129148497
C         -0.0020376740         0.0002650558         0.0001500017
N          0.0017118885        -0.0002226131        -0.0001259551
H         -0.0036744434         0.0017599430         0.0023307389
H         -0.0042913233        -0.0007249517        -0.0017471467
H          0.0028266228        -0.0010210354        -0.0012035697
H          0.0031384628         0.0002426724         0.0007642546
           6
AU Step:         32 Time:      264.5810733933
C         -0.0020624376         0.0002682709         0.0001518236
N          0.0017321290        -0.0002252423        -0.0001274437
H         -0.0035313891         0.0015789777         0.0020640844
H         -0.0040701807        -0.0005913040        -0.0015073070
H          0.0026860457        -0.0008594998        -0.0009657522
H          0.0029286612         0.0001266787         0.0005522288
           6
AU Step:         33 Time:      272.8492319368
C         -0.0020864626         0.0002713897         0.0001535903
N          0.0017516716        -0.0002277809        -0.0001288812
H         -0.0033811896         0.0013917624         0.0017883533
H         -0.0038393168        -0.0004535986        -0.0012596245
H          0.0025384902        -0.0006928391        -0.0007208989
H          0.0027098656         0.0000076398         0.0003343465
           6
AU Step:         34 Time:      281.1173904803
C         -0.0021097007         0.0002744062         0.0001552985
N          0.0017704482        -0.0002302199        -0.0001302625
H         -0.0032249431         0.0011996982         0.0015056246
H         -0.0036004373        -0.0003128726        -0.0010059725
H          0.0023852232        -0.0005225577        -0.0004712133
H          0.0024839882        -0.0001133534         0.0001125776
           6
AU Step:         35 Time:      289.3855490239
C         -0.0021321193         0.0002773160         0.0001569458
N          0.0017883924        -0.0002325508        -0.0001315828
H         -0.0030636089         0.0010039950         0.0012176964
H         -0.0033550266        -0.0001700199        -0.0007479688
H          0.0022274320        -0.0003500626        -0.0002187532
H          0.0022528183        -0.0002352812        -0.0001112391
           6
AU Step:         36 Time:      297.6537075674
C         -0.0021536970         0.0002801166         0.0001585305
N          0.0018054362        -0.0002347647        -0.0001328371
H         -0.0028980305         0.0008057114         0.0009261414
H         -0.0031043875        -0.0000258205        -0.0004870280
H          0.0020662473        -0.0001766967         0.0000345184
H          0.0020180620        -0.0003571698        -0.0003353496
           6
AU Step:         37 Time:      305.9218661109
C         -0.0021744189         0.0002828060         0.0001600516
N          0.0018215052        -0.0002368519        -0.0001340200
H         -0.0027289578         0.0006057888         0.0006323590
H         -0.0028496780         0.0001190320        -0.0002244090
H          0.0019027693        -0.0000037733         0.0002866820
H          0.0017813815        -0.0004780660        -0.0005580376
           6
AU Step:         38 Time:      314.1900246545
C         -0.0021942728         0.0002853827         0.0001615081
N          0.0018365152        -0.0002388013        -0.0001351252
H         -0.0025570684         0.0004050834         0.0003376237
H         -0.0025919472         0.0002639047         0.0000387410
H          0.0017380926         0.0001673903         0.0005358118
H          0.0015444362        -0.0005970115        -0.0007775798
           6
AU Step:         39 Time:      322.4581831980
C         -0.0022132457         0.0002878452         0.0001628991
N          0.0018503675        -0.0002406002        -0.0001361455
H         -0.0023829871         0.0002043965         0.0000431297
H         -0.0023321679         0.0004082034         0.0003013459
H          0.0015733325         0.0003354386         0.0007799242
H          0.0013089232        -0.0007130173        -0.0009921997
           6
AU Step:         40 Time:      330.7263417416
C         -0.0022313202         0.0002901912         0.0001642233
N          0.0018629450        -0.0002422332        -0.0001370724
H         -0.0022073048         0.0000045031        -0.0002499667
H         -0.0020712687         0.0005513496         0.0005623615
H          0.0014096514         0.0004989437         0.0010169289
H          0.0010766190        -0.0008250387        -0.0012000226
           6
AU Step:         41 Time:      338.9945002851
C         -0.0022484711         0.0002924178         0.0001654787
N          0.0018741082        -0.0002436821        -0.0001378956
H         -0.0020305982        -0.0001938205        -0.0005405049
H         -0.0018101650         0.0006927596         0.0008207375
H          0.0012482860         0.0006563717         0.0012445787
H          0.0008494208        -0.0009319502        -0.0013990306
           6
AU Step:         42 Time:      347.2626588286
C         -0.0022646625         0.0002945202         0.0001666627
N          0.0018836906        -0.0002449252        -0.0001386031
H         -0.0018534477        -0.0003897689        -0.0008272785
H         -0.0015497901         0.0008318235         0.0010753797
H          0.0010905732         0.0008060486         0.0014604208
H          0.0006293877        -0.0010325204        -0.0015870184
           6
AU Step:         43 Time:      355.5308173722
C         -0.0022798439         0.0002964921         0.0001677714
N          0.0018914952        -0.0002459368        -0.0001391806
H         -0.0016764566        -0.0005824802        -0.0011089933
H         -0.0012911261         0.0009678832         0.0013251113
H          0.0009379758         0.0009461293         0.0016617512
H          0.0004187797        -0.0011253900        -0.0017615527
           6
AU Step:         44 Time:      363.7989759157
C         -0.0022939463         0.0002983250         0.0001687997
N          0.0018972906        -0.0002466868        -0.0001396113
H         -0.0015002710        -0.0007710056        -0.0013842221
H         -0.0010352379         0.0011002090         0.0015686327
H          0.0007921047         0.0010745696         0.0018455741
H          0.0002200912        -0.0012090503        -0.0019199359
           6
AU Step:         45 Time:      372.0671344593
C         -0.0023068788         0.0003000074         0.0001697407
N          0.0019008089        -0.0002471399        -0.0001398758
H         -0.0013255998        -0.0009542790        -0.0016513583
H         -0.0007833067         0.0012279756         0.0018044787
H          0.0006547356         0.0011891060         0.0020085742
H          0.0000360748        -0.0012818312        -0.0020591828
           6
AU Step:         46 Time:      380.3352930028
C         -0.0023185235         0.0003015246         0.0001705854
N          0.0019017446        -0.0002472558        -0.0001399516
H         -0.0011532363        -0.0011310841        -0.0019085654
H         -0.0005366655         0.0013502361         0.0020309711
H          0.0005278167         0.0012872481         0.0021471066
H         -0.0001302486        -0.0013418976        -0.0021760135
           6
AU Step:         47 Time:      388.6034515463
C         -0.0023287313         0.0003028582         0.0001713225
N          0.0018997555        -0.0002469892        -0.0001398134
H         -0.0009840805        -0.0013000193        -0.0021537224
H         -0.0002968377         0.0014658929         0.0022461710
H          0.0004134658         0.0013662872         0.0022572103
H         -0.0002755978        -0.0013872563        -0.0022668657
           6
AU Step:         48 Time:      396.8716100899
C         -0.0023373164         0.0003039858         0.0001719379
N          0.0018944670        -0.0002462901        -0.0001394336
H         -0.0008191624        -0.0014594622        -0.0023843662
H         -0.0000655761         0.0015736672         0.0024478265
H          0.0003139496         0.0014233263         0.0023346547
H         -0.0003964625        -0.0014157785        -0.0023279323
           6
AU Step:         49 Time:      405.1397686334
C         -0.0023440520         0.0003048807         0.0001724133
N          0.0018854799        -0.0002451052        -0.0001387836
H         -0.0006596642        -0.0016075356        -0.0025976329
H          0.0001550998         0.0016720665         0.0026333246
H          0.0002316414         0.0014553353         0.0023750278
H         -0.0004891697        -0.0014252448        -0.0023552355
           6
AU Step:         50 Time:      413.4079271770
C         -0.0023486651         0.0003055137         0.0001727250
N          0.0018723838        -0.0002433779        -0.0001378351
H         -0.0005069399        -0.0017420855        -0.0027901981
H          0.0003628678         0.0017593465         0.0027996514
H          0.0001689454         0.0014592402         0.0023738861
H         -0.0005499989        -0.0014134261        -0.0023447500
           6
AU Step:         51 Time:      421.6760857205
C         -0.0023508323         0.0003058622         0.0001728371
N          0.0018547789        -0.0002410472        -0.0001365655
H         -0.0003625331        -0.0018607048        -0.0029581994
H          0.0005550710         0.0018334359         0.0029433863
H          0.0001281798         0.0014320341         0.0023270011
H         -0.0005753630        -0.0013782325        -0.0022925784
           6
AU Step:         52 Time:      429.9442442640
C         -0.0023501684         0.0003060777         0.0001725971
N          0.0018323163        -0.0002379700        -0.0001350112
H         -0.0002282730        -0.0019616244        -0.0030966354
H          0.0007286119         0.0018910109         0.0030612467
H          0.0001113756         0.0013703405         0.0022310869
H         -0.0005621102        -0.0013185269        -0.0021948282
           6
AU Step:         53 Time:      438.2124028076
C         -0.0023603970         0.0003077818         0.0001731214
N          0.0018188875        -0.0002360373        -0.0001341419
H         -0.0001552980        -0.0020422530        -0.0032104504
H          0.0008348057         0.0019442563         0.0031643646
H          0.0001544189         0.0012732900         0.0020877330
H         -0.0004758145        -0.0012412584        -0.0020591049
           6
AU Step:         54 Time:      446.4805613511
C         -0.0023806877         0.0003105983         0.0001745141
N          0.0018141976        -0.0002353398        -0.0001338536
H         -0.0001463949        -0.0020981010        -0.0032960862
H          0.0008695736         0.0019924926         0.0032478810
H          0.0002576878         0.0011412043         0.0018952503
H         -0.0003157842        -0.0011448175        -0.0018851068
           6
AU Step:         55 Time:      454.7487198947
C         -0.0023960614         0.0003127044         0.0001755908
N          0.0018040080        -0.0002339586        -0.0001331384
H         -0.0001554138        -0.0021249781        -0.0033389114
H          0.0008737511         0.0020188364         0.0032916547
H          0.0003863298         0.0009736130         0.0016498309
H         -0.0001147782        -0.0010209838        -0.0016634050
           6
AU Step:         56 Time:      463.0168784382
C         -0.0024061030         0.0003140979         0.0001762894
N          0.0017886416        -0.0002319106        -0.0001320356
H         -0.0001847331        -0.0021190883        -0.0033325577
H          0.0008431471         0.0020197801         0.0032901444
H          0.0005392829         0.0007719857         0.0013541201
H          0.0001253972        -0.0008712573        -0.0013961887
           6
AU Step:         57 Time:      471.2850369817
C         -0.0024104418         0.0003147427         0.0001765749
N          0.0017686676        -0.0002292642        -0.0001305907
H         -0.0002366463        -0.0020764454        -0.0032708143
H          0.0007736597         0.0019920382         0.0032376963
H          0.0007143431         0.0005397225         0.0010133013
H          0.0004010183        -0.0006983556        -0.0010881462
           6
AU Step:         58 Time:      479.5531955253
C         -0.0024087947         0.0003146073         0.0001764224
N          0.0017449094        -0.0002261247        -0.0001288663
H         -0.0003132067        -0.0019933148        -0.0031479126
H          0.0006615464         0.0019325728         0.0031290139
H          0.0009081647         0.0002820895         0.0006352703
H          0.0007064093        -0.0005064032        -0.0007464806
           6
AU Step:         59 Time:      487.8213540688
C         -0.0024010249         0.0003136772         0.0001758192
N          0.0017184280        -0.0002226295        -0.0001269413
H         -0.0004160319        -0.0018665704        -0.0029590111
H          0.0005037731         0.0018388250         0.0029596257
H          0.0011164287         0.0000060633         0.0002304466
H          0.0010341638        -0.0003008632        -0.0003807338
           6
AU Step:         60 Time:      496.0895126123
C         -0.0023872232         0.0003119673         0.0001747703
N          0.0016904815        -0.0002189423        -0.0001249086
H         -0.0005460550        -0.0016941228        -0.0027008279
H          0.0002984536         0.0017090400         0.0027264778
H          0.0013341919        -0.0002800322        -0.0001887461
H          0.0013756445        -0.0000882937        -0.0000023249
           6
AU Step:         61 Time:      504.3576711559
C         -0.0023678177         0.0003095359         0.0001733051
N          0.0016624677        -0.0002152459        -0.0001228709
H         -0.0007032328        -0.0014754234        -0.0023724026
H          0.0000453648         0.0015426635         0.0024286443
H          0.0015564146        -0.0005670848        -0.0006086856
H          0.0017217469         0.0001240408         0.0003761633
           6
AU Step:         62 Time:      512.6258296994
C         -0.0023437199         0.0003065042         0.0001714888
N          0.0016358719        -0.0002117348        -0.0001209367
H         -0.0008862660        -0.0012119767        -0.0019758765
H         -0.0002535505         0.0013407508         0.0020680502
H          0.0017786621        -0.0008458734        -0.0010155238
H          0.0020638858         0.0003286290         0.0007418357
           6
AU Step:         63 Time:      520.8939882430
C         -0.0023165426         0.0003030849         0.0001694376
N          0.0016122585        -0.0002086146        -0.0001192205
H         -0.0010924150        -0.0009077581        -0.0015171360
H         -0.0005938126         0.0011063107         0.0016500752
H          0.0019980432        -0.0011077654        -0.0013961540
H          0.0023952084         0.0005181282         0.0010822933
           6
AU Step:         64 Time:      529.1621467865
C         -0.0022890312         0.0002996390         0.0001673505
N          0.0015934005        -0.0002061189        -0.0001178512
H         -0.0013175014        -0.0005694709        -0.0010062180
H         -0.0009682804         0.0008445394         0.0011839529
H          0.0022147258        -0.0013453204        -0.0017389540
H          0.0027123063         0.0006855480         0.0013861392
           6
AU Step:         65 Time:      537.4303053300
C         -0.0022663405         0.0002968444         0.0001656020
N          0.0015818816        -0.0002045881        -0.0001170165
H         -0.0015562732        -0.0002067031        -0.0004575817
H         -0.0013674205         0.0005630374         0.0006830994
H          0.0024356863        -0.0015527246        -0.0020339694