 Entering Gaussian System, Link 0=g09
 Input=gaussian.gjf
 Output=gaussian.log
 Initial command:
 /opt/g09_D01_em64t/g09/l1.exe "/tmp/Gau-21041.inp" -scrdir="/tmp/"
 Entering Link 1 = /opt/g09_D01_em64t/g09/l1.exe PID=     21042.
  
 Copyright (c) 1988,1990,1992,1993,1995,1998,2003,2009,2013,
            Gaussian, Inc.  All Rights Reserved.
  
 This is part of the Gaussian(R) 09 program.  It is based on
 the Gaussian(R) 03 system (copyright 2003, Gaussian, Inc.),
 the Gaussian(R) 98 system (copyright 1998, Gaussian, Inc.),
 the Gaussian(R) 94 system (copyright 1995, Gaussian, Inc.),
 the Gaussian 92(TM) system (copyright 1992, Gaussian, Inc.),
 the Gaussian 90(TM) system (copyright 1990, Gaussian, Inc.),
 the Gaussian 88(TM) system (copyright 1988, Gaussian, Inc.),
 the Gaussian 86(TM) system (copyright 1986, Carnegie Mellon
 University), and the Gaussian 82(TM) system (copyright 1983,
 Carnegie Mellon University). Gaussian is a federally registered
 trademark of Gaussian, Inc.
  
 This software contains proprietary and confidential information,
 including trade secrets, belonging to Gaussian, Inc.
  
 This software is provided under written license and may be
 used, copied, transmitted, or stored only in accord with that
 written license.
  
 The following legend is applicable only to US Government
 contracts under FAR:
  
                    RESTRICTED RIGHTS LEGEND
  
 Use, reproduction and disclosure by the US Government is
 subject to restrictions as set forth in subparagraphs (a)
 and (c) of the Commercial Computer Software - Restricted
 Rights clause in FAR 52.227-19.
  
 Gaussian, Inc.
 340 Quinnipiac St., Bldg. 40, Wallingford CT 06492
  
  
 ---------------------------------------------------------------
 Warning -- This program may not be used in any manner that
 competes with the business of Gaussian, Inc. or will provide
 assistance to any competitor of Gaussian, Inc.  The licensee
 of this program is prohibited from giving any competitor of
 Gaussian, Inc. access to this program.  By using this program,
 the user acknowledges that Gaussian, Inc. is engaged in the
 business of creating and licensing software in the field of
 computational chemistry and represents and warrants to the
 licensee that it is not a competitor of Gaussian, Inc. and that
 it will not use this program in any manner prohibited above.
 ---------------------------------------------------------------
  

 Cite this work as:
 Gaussian 09, Revision D.01,
 M. J. Frisch, G. W. Trucks, H. B. Schlegel, G. E. Scuseria, 
 M. A. Robb, J. R. Cheeseman, G. Scalmani, V. Barone, B. Mennucci, 
 G. A. Petersson, H. Nakatsuji, M. Caricato, X. Li, H. P. Hratchian, 
 A. F. Izmaylov, J. Bloino, G. Zheng, J. L. Sonnenberg, M. Hada, 
 M. Ehara, K. Toyota, R. Fukuda, J. Hasegawa, M. Ishida, T. Nakajima, 
 Y. Honda, O. Kitao, H. Nakai, T. Vreven, J. A. Montgomery, Jr., 
 J. E. Peralta, F. Ogliaro, M. Bearpark, J. J. Heyd, E. Brothers, 
 K. N. Kudin, V. N. Staroverov, T. Keith, R. Kobayashi, J. Normand, 
 K. Raghavachari, A. Rendell, J. C. Burant, S. S. Iyengar, J. Tomasi, 
 M. Cossi, N. Rega, J. M. Millam, M. Klene, J. E. Knox, J. B. Cross, 
 V. Bakken, C. Adamo, J. Jaramillo, R. Gomperts, R. E. Stratmann, 
 O. Yazyev, A. J. Austin, R. Cammi, C. Pomelli, J. W. Ochterski, 
 R. L. Martin, K. Morokuma, V. G. Zakrzewski, G. A. Voth, 
 P. Salvador, J. J. Dannenberg, S. Dapprich, A. D. Daniels, 
 O. Farkas, J. B. Foresman, J. V. Ortiz, J. Cioslowski, 
 and D. J. Fox, Gaussian, Inc., Wallingford CT, 2013.
 
 ******************************************
 Gaussian 09:  EM64L-G09RevD.01 24-Apr-2013
                30-Apr-2014 
 ******************************************
 %chk=gaussian.chk
 %mem=1GB
 %nproc=2
 Will use up to    2 processors via shared memory.
 %nproclinda=1
 Will use up to    1 processors via Linda.
 --------------------------------------------------------
 #HF/6-31g* nosymm iop(2/12=3,3/33=1) guess=only pop=full
 --------------------------------------------------------
 1/38=1/1;
 2/12=3,15=1,17=6,18=5,40=1/2;
 3/5=1,6=6,7=1,11=9,16=1,25=1,30=1,33=1,89=1/1,2;
 4//1;
 6/7=3,28=1/1;
 99/5=2/99;
 -------
 [0] [0]
 -------
 Symbolic Z-matrix:
 Charge =  2 Multiplicity = 1
 c                    -2.42966   0.38119   0.21301 
 n                    -1.17465   0.15599   0.07256 
 h                    -2.80566   0.86224   1.11522 
 h                    -3.10093   0.08926  -0.59224 
 h                    -0.80429  -0.33063  -0.74909 
 h                    -0.49519   0.46098   0.77215 
 c                    -2.42966   0.38105   0.21319 
 n                    -1.17454   0.15584   0.07254 
 h                    -2.80611   0.86318   1.11404 
 h                    -3.10141   0.09012  -0.59267 
 h                    -0.80446  -0.3304   -0.75004 
 h                    -0.49556   0.46202   0.77284 
 
                          Input orientation:                          
 ---------------------------------------------------------------------
 Center     Atomic      Atomic             Coordinates (Angstroms)
 Number     Number       Type             X           Y           Z
 ---------------------------------------------------------------------
      1          6           0       -2.429657    0.381185    0.213006
      2          7           0       -1.174652    0.155985    0.072559
      3          1           0       -2.805659    0.862239    1.115220
      4          1           0       -3.100931    0.089263   -0.592242
      5          1           0       -0.804291   -0.330627   -0.749091
      6          1           0       -0.495187    0.460980    0.772155
      7          6           0       -2.429660    0.381054    0.213186
      8          7           0       -1.174535    0.155844    0.072538
      9          1           0       -2.806105    0.863177    1.114042
     10          1           0       -3.101413    0.090117   -0.592670
     11          1           0       -0.804459   -0.330400   -0.750040
     12          1           0       -0.495561    0.462020    0.772836
 ---------------------------------------------------------------------
                    Distance matrix (angstroms):
                    1          2          3          4          5
     1  C    0.000000
     2  N    1.282762   0.000000
     3  H    1.089394   2.060611   0.000000
     4  H    1.088233   2.038863   1.897394   0.000000
     5  H    2.018445   1.024240   2.983966   2.339970   0.000000
     6  H    2.015239   1.021826   2.370017   2.964735   1.742520
     7  C    0.000000   1.282761   1.089303   1.088329   2.018486
     8  N    1.282903   0.000000   2.060763   2.038962   1.024113
     9  H    1.088988   2.060691   0.001571   1.896647   2.983906
    10  H    1.088619   2.039430   1.897507   0.001070   2.340568
    11  H    2.018682   1.024832   2.984356   2.339829   0.000990
    12  H    2.015110   1.022355   2.369378   2.964850   1.743521
                    6          7          8          9         10
     6  H    0.000000
     7  C    2.015197   0.000000
     8  N    1.021805   1.282903   0.000000
     9  H    2.370442   1.088897   2.060843   0.000000
    10  H    2.965249   1.088715   2.039529   1.896759   0.000000
    11  H    1.743275   2.018724   1.024706   2.984295   2.340427
    12  H    0.001299   2.015068   1.022334   2.369802   2.965364
                   11         12
    11  H    0.000000
    12  H    1.744275   0.000000
 Symmetry turned off by external request.
 Stoichiometry    C2H8N2(2+)
 Framework group  C1[X(C2H8N2)]
 Deg. of freedom    30
 Full point group                 C1      NOp   1
 Rotational constants (GHZ):     75.5473185     15.5719882     12.9143320
 Standard basis: 6-31G(d) (6D, 7F)
                         Coordinates in L301:                         
 ---------------------------------------------------------------------
 Center     Atomic      Atomic             Coordinates (Angstroms)
 Number     Number       Type             X           Y           Z
 ---------------------------------------------------------------------
      1          6           0       -2.429657    0.381185    0.213006
      2          7           0       -1.174652    0.155985    0.072559
      3          1           0       -2.805659    0.862239    1.115220
      4          1           0       -3.100931    0.089263   -0.592242
      5          1           0       -0.804291   -0.330627   -0.749091
      6          1           0       -0.495187    0.460980    0.772155
      7          6           0       -2.429660    0.381054    0.213186
      8          7           0       -1.174535    0.155844    0.072538
      9          1           0       -2.806105    0.863177    1.114042
     10          1           0       -3.101413    0.090117   -0.592670
     11          1           0       -0.804459   -0.330400   -0.750040
     12          1           0       -0.495561    0.462020    0.772836
 ---------------------------------------------------------------------
 FixB: optimizing general contractions.
 Ernie: Thresh=  0.10000D-02 Tol=  0.10000D-05 Strict=F.
 IA=     1 ShT= 0 ShC= 0 NL=   1 NS=   0.
 IA=     1 L=0 SC=0 ISt=    0 NBk=    0 NP=    0 IndPr=    0.
 IA=     1 ShT= 1 ShC= 0 NL=   2 NS=   1.
 IA=     1 L=1 SC=0 ISt=    0 NBk=    0 NP=    0 IndPr=    0.
 IA=     1 ShT= 2 ShC= 2 NL=   1 NS=   1.
 IA=     1 L=2 SC=2 ISt=    0 NBk=    0 NP=    0 IndPr=    0.
 IA=     2 ShT= 0 ShC= 0 NL=   1 NS=   0.
 IA=     2 L=0 SC=0 ISt=    0 NBk=    0 NP=    0 IndPr=    0.
 IA=     2 ShT= 1 ShC= 0 NL=   2 NS=   1.
 IA=     2 L=1 SC=0 ISt=    0 NBk=    0 NP=    0 IndPr=    0.
 IA=     2 ShT= 2 ShC= 2 NL=   1 NS=   1.
 IA=     2 L=2 SC=2 ISt=    0 NBk=    0 NP=    0 IndPr=    0.
 IA=     3 ShT= 0 ShC= 0 NL=   2 NS=   1.
 IA=     3 L=0 SC=0 ISt=    0 NBk=    0 NP=    0 IndPr=    0.
 IA=     4 ShT= 0 ShC= 0 NL=   2 NS=   1.
 IA=     4 L=0 SC=0 ISt=    0 NBk=    0 NP=    0 IndPr=    0.
 IA=     5 ShT= 0 ShC= 0 NL=   2 NS=   1.
 IA=     5 L=0 SC=0 ISt=    0 NBk=    0 NP=    0 IndPr=    0.
 IA=     6 ShT= 0 ShC= 0 NL=   2 NS=   1.
 IA=     6 L=0 SC=0 ISt=    0 NBk=    0 NP=    0 IndPr=    0.
 IA=     7 ShT= 0 ShC= 0 NL=   1 NS=   0.
 IA=     7 L=0 SC=0 ISt=    0 NBk=    0 NP=    0 IndPr=    0.
 IA=     7 ShT= 1 ShC= 0 NL=   2 NS=   1.
 IA=     7 L=1 SC=0 ISt=    0 NBk=    0 NP=    0 IndPr=    0.
 IA=     7 ShT= 2 ShC= 2 NL=   1 NS=   1.
 IA=     7 L=2 SC=2 ISt=    0 NBk=    0 NP=    0 IndPr=    0.
 IA=     8 ShT= 0 ShC= 0 NL=   1 NS=   0.
 IA=     8 L=0 SC=0 ISt=    0 NBk=    0 NP=    0 IndPr=    0.
 IA=     8 ShT= 1 ShC= 0 NL=   2 NS=   1.
 IA=     8 L=1 SC=0 ISt=    0 NBk=    0 NP=    0 IndPr=    0.
 IA=     8 ShT= 2 ShC= 2 NL=   1 NS=   1.
 IA=     8 L=2 SC=2 ISt=    0 NBk=    0 NP=    0 IndPr=    0.
 IA=     9 ShT= 0 ShC= 0 NL=   2 NS=   1.
 IA=     9 L=0 SC=0 ISt=    0 NBk=    0 NP=    0 IndPr=    0.
 IA=    10 ShT= 0 ShC= 0 NL=   2 NS=   1.
 IA=    10 L=0 SC=0 ISt=    0 NBk=    0 NP=    0 IndPr=    0.
 IA=    11 ShT= 0 ShC= 0 NL=   2 NS=   1.
 IA=    11 L=0 SC=0 ISt=    0 NBk=    0 NP=    0 IndPr=    0.
 IA=    12 ShT= 0 ShC= 0 NL=   2 NS=   1.
 IA=    12 L=0 SC=0 ISt=    0 NBk=    0 NP=    0 IndPr=    0.
 LdAtmC:  AtmChg=     6.000000     7.000000     1.000000     1.000000     1.000000
 LdAtmC:  AtmChg=     1.000000     6.000000     7.000000     1.000000     1.000000
 LdAtmC:  AtmChg=     1.000000     1.000000
 AtZEff=     -3.6000000     -4.5500000     -1.0000000     -1.0000000     -1.0000000
 AtZEff=     -1.0000000     -3.6000000     -4.5500000     -1.0000000     -1.0000000
 AtZEff=     -1.0000000     -1.0000000
    76 basis functions,   144 primitive gaussians,    76 cartesian basis functions
    16 alpha electrons       16 beta electrons
       nuclear repulsion energy    228286.7620515902 Hartrees.
 IS=     1 IAt=     1 ISR=     1 T=0 IP=      1 IndIP=      1 IndIPD=      0 C=  5.363452D-01  0.000000D+00                             NZ=T
 IS=     1 IAt=     1 ISR=     1 T=0 IP=      2 IndIP=      2 IndIPD=      1 C=  9.894521D-01  0.000000D+00                             NZ=T
 IS=     1 IAt=     1 ISR=     1 T=0 IP=      3 IndIP=      3 IndIPD=      2 C=  1.597283D+00  0.000000D+00                             NZ=T
 IS=     1 IAt=     1 ISR=     1 T=0 IP=      4 IndIP=      4 IndIPD=      3 C=  2.079187D+00  0.000000D+00                             NZ=T
 IS=     1 IAt=     1 ISR=     1 T=0 IP=      5 IndIP=      5 IndIPD=      4 C=  1.774174D+00  0.000000D+00                             NZ=T
 IS=     1 IAt=     1 ISR=     1 T=0 IP=      6 IndIP=      6 IndIPD=      5 C=  6.125797D-01  0.000000D+00                             NZ=T
 IS=     2 IAt=     1 ISR=     2 T=1 IP=      1 IndIP=      7 IndIPD=      0 C= -3.995564D-01  1.296082D+00                             NZ=T
 IS=     2 IAt=     1 ISR=     2 T=1 IP=      2 IndIP=      8 IndIPD=      1 C= -1.841552D-01  9.937536D-01                             NZ=T
 IS=     2 IAt=     1 ISR=     2 T=1 IP=      3 IndIP=      9 IndIPD=      2 C=  5.163903D-01  4.959527D-01                             NZ=T
 IS=     3 IAt=     1 ISR=     3 T=1 IP=      1 IndIP=     10 IndIPD=      0 C=  1.876179D-01  1.541276D-01                             NZ=T
 IS=     4 IAt=     1 ISR=     4 T=2 IP=      1 IndIP=     11 IndIPD=      1 C=  0.000000D+00  0.000000D+00  1.113825D+00  0.000000D+00 NZ=T
 IS=     5 IAt=     2 ISR=     1 T=0 IP=      1 IndIP=     12 IndIPD=      0 C=  6.789979D-01  0.000000D+00                             NZ=T
 IS=     5 IAt=     2 ISR=     1 T=0 IP=      2 IndIP=     13 IndIPD=      1 C=  1.250431D+00  0.000000D+00                             NZ=T
 IS=     5 IAt=     2 ISR=     1 T=0 IP=      3 IndIP=     14 IndIPD=      2 C=  2.020356D+00  0.000000D+00                             NZ=T
 IS=     5 IAt=     2 ISR=     1 T=0 IP=      4 IndIP=     15 IndIPD=      3 C=  2.644212D+00  0.000000D+00                             NZ=T
 IS=     5 IAt=     2 ISR=     1 T=0 IP=      5 IndIP=     16 IndIPD=      4 C=  2.265005D+00  0.000000D+00                             NZ=T
 IS=     5 IAt=     2 ISR=     1 T=0 IP=      6 IndIP=     17 IndIPD=      5 C=  7.791879D-01  0.000000D+00                             NZ=T
 IS=     6 IAt=     2 ISR=     2 T=1 IP=      1 IndIP=     18 IndIPD=      0 C= -5.158747D-01  2.068052D+00                             NZ=T
 IS=     6 IAt=     2 ISR=     2 T=1 IP=      2 IndIP=     19 IndIPD=      1 C= -2.550231D-01  1.610011D+00                             NZ=T
 IS=     6 IAt=     2 ISR=     2 T=1 IP=      3 IndIP=     20 IndIPD=      2 C=  6.727345D-01  7.644904D-01                             NZ=T
 IS=     7 IAt=     2 ISR=     3 T=1 IP=      1 IndIP=     21 IndIPD=      0 C=  2.226950D-01  2.050881D-01                             NZ=T
 IS=     8 IAt=     2 ISR=     4 T=2 IP=      1 IndIP=     22 IndIPD=      2 C=  0.000000D+00  0.000000D+00  1.113825D+00  0.000000D+00 NZ=T
 IS=     9 IAt=     3 ISR=     1 T=0 IP=      1 IndIP=     23 IndIPD=      0 C=  2.149354D-01  0.000000D+00                             NZ=T
 IS=     9 IAt=     3 ISR=     1 T=0 IP=      2 IndIP=     24 IndIPD=      1 C=  3.645712D-01  0.000000D+00                             NZ=T
 IS=     9 IAt=     3 ISR=     1 T=0 IP=      3 IndIP=     25 IndIPD=      2 C=  4.150514D-01  0.000000D+00                             NZ=T
 IS=    10 IAt=     3 ISR=     2 T=0 IP=      1 IndIP=     26 IndIPD=      0 C=  1.813806D-01  0.000000D+00                             NZ=T
 IS=    11 IAt=     4 ISR=     1 T=0 IP=      1 IndIP=     27 IndIPD=      0 C=  2.149354D-01  0.000000D+00                             NZ=T
 IS=    11 IAt=     4 ISR=     1 T=0 IP=      2 IndIP=     28 IndIPD=      1 C=  3.645712D-01  0.000000D+00                             NZ=T
 IS=    11 IAt=     4 ISR=     1 T=0 IP=      3 IndIP=     29 IndIPD=      2 C=  4.150514D-01  0.000000D+00                             NZ=T
 IS=    12 IAt=     4 ISR=     2 T=0 IP=      1 IndIP=     30 IndIPD=      0 C=  1.813806D-01  0.000000D+00                             NZ=T
 IS=    13 IAt=     5 ISR=     1 T=0 IP=      1 IndIP=     31 IndIPD=      0 C=  2.149354D-01  0.000000D+00                             NZ=T
 IS=    13 IAt=     5 ISR=     1 T=0 IP=      2 IndIP=     32 IndIPD=      1 C=  3.645712D-01  0.000000D+00                             NZ=T
 IS=    13 IAt=     5 ISR=     1 T=0 IP=      3 IndIP=     33 IndIPD=      2 C=  4.150514D-01  0.000000D+00                             NZ=T
 IS=    14 IAt=     5 ISR=     2 T=0 IP=      1 IndIP=     34 IndIPD=      0 C=  1.813806D-01  0.000000D+00                             NZ=T
 IS=    15 IAt=     6 ISR=     1 T=0 IP=      1 IndIP=     35 IndIPD=      0 C=  2.149354D-01  0.000000D+00                             NZ=T
 IS=    15 IAt=     6 ISR=     1 T=0 IP=      2 IndIP=     36 IndIPD=      1 C=  3.645712D-01  0.000000D+00                             NZ=T
 IS=    15 IAt=     6 ISR=     1 T=0 IP=      3 IndIP=     37 IndIPD=      2 C=  4.150514D-01  0.000000D+00                             NZ=T
 IS=    16 IAt=     6 ISR=     2 T=0 IP=      1 IndIP=     38 IndIPD=      0 C=  1.813806D-01  0.000000D+00                             NZ=T
 IS=    17 IAt=     7 ISR=     1 T=0 IP=      1 IndIP=     39 IndIPD=      0 C=  5.363452D-01  0.000000D+00                             NZ=T
 IS=    17 IAt=     7 ISR=     1 T=0 IP=      2 IndIP=     40 IndIPD=      1 C=  9.894521D-01  0.000000D+00                             NZ=T
 IS=    17 IAt=     7 ISR=     1 T=0 IP=      3 IndIP=     41 IndIPD=      2 C=  1.597283D+00  0.000000D+00                             NZ=T
 IS=    17 IAt=     7 ISR=     1 T=0 IP=      4 IndIP=     42 IndIPD=      3 C=  2.079187D+00  0.000000D+00                             NZ=T
 IS=    17 IAt=     7 ISR=     1 T=0 IP=      5 IndIP=     43 IndIPD=      4 C=  1.774174D+00  0.000000D+00                             NZ=T
 IS=    17 IAt=     7 ISR=     1 T=0 IP=      6 IndIP=     44 IndIPD=      5 C=  6.125797D-01  0.000000D+00                             NZ=T
 IS=    18 IAt=     7 ISR=     2 T=1 IP=      1 IndIP=     45 IndIPD=      0 C= -3.995564D-01  1.296082D+00                             NZ=T
 IS=    18 IAt=     7 ISR=     2 T=1 IP=      2 IndIP=     46 IndIPD=      1 C= -1.841552D-01  9.937536D-01                             NZ=T
 IS=    18 IAt=     7 ISR=     2 T=1 IP=      3 IndIP=     47 IndIPD=      2 C=  5.163903D-01  4.959527D-01                             NZ=T
 IS=    19 IAt=     7 ISR=     3 T=1 IP=      1 IndIP=     48 IndIPD=      0 C=  1.876179D-01  1.541276D-01                             NZ=T
 IS=    20 IAt=     7 ISR=     4 T=2 IP=      1 IndIP=     49 IndIPD=      3 C=  0.000000D+00  0.000000D+00  1.113825D+00  0.000000D+00 NZ=T
 IS=    21 IAt=     8 ISR=     1 T=0 IP=      1 IndIP=     50 IndIPD=      0 C=  6.789979D-01  0.000000D+00                             NZ=T
 IS=    21 IAt=     8 ISR=     1 T=0 IP=      2 IndIP=     51 IndIPD=      1 C=  1.250431D+00  0.000000D+00                             NZ=T
 IS=    21 IAt=     8 ISR=     1 T=0 IP=      3 IndIP=     52 IndIPD=      2 C=  2.020356D+00  0.000000D+00                             NZ=T
 IS=    21 IAt=     8 ISR=     1 T=0 IP=      4 IndIP=     53 IndIPD=      3 C=  2.644212D+00  0.000000D+00                             NZ=T
 IS=    21 IAt=     8 ISR=     1 T=0 IP=      5 IndIP=     54 IndIPD=      4 C=  2.265005D+00  0.000000D+00                             NZ=T
 IS=    21 IAt=     8 ISR=     1 T=0 IP=      6 IndIP=     55 IndIPD=      5 C=  7.791879D-01  0.000000D+00                             NZ=T
 IS=    22 IAt=     8 ISR=     2 T=1 IP=      1 IndIP=     56 IndIPD=      0 C= -5.158747D-01  2.068052D+00                             NZ=T
 IS=    22 IAt=     8 ISR=     2 T=1 IP=      2 IndIP=     57 IndIPD=      1 C= -2.550231D-01  1.610011D+00                             NZ=T
 IS=    22 IAt=     8 ISR=     2 T=1 IP=      3 IndIP=     58 IndIPD=      2 C=  6.727345D-01  7.644904D-01                             NZ=T
 IS=    23 IAt=     8 ISR=     3 T=1 IP=      1 IndIP=     59 IndIPD=      0 C=  2.226950D-01  2.050881D-01                             NZ=T
 IS=    24 IAt=     8 ISR=     4 T=2 IP=      1 IndIP=     60 IndIPD=      4 C=  0.000000D+00  0.000000D+00  1.113825D+00  0.000000D+00 NZ=T
 IS=    25 IAt=     9 ISR=     1 T=0 IP=      1 IndIP=     61 IndIPD=      0 C=  2.149354D-01  0.000000D+00                             NZ=T
 IS=    25 IAt=     9 ISR=     1 T=0 IP=      2 IndIP=     62 IndIPD=      1 C=  3.645712D-01  0.000000D+00                             NZ=T
 IS=    25 IAt=     9 ISR=     1 T=0 IP=      3 IndIP=     63 IndIPD=      2 C=  4.150514D-01  0.000000D+00                             NZ=T
 IS=    26 IAt=     9 ISR=     2 T=0 IP=      1 IndIP=     64 IndIPD=      0 C=  1.813806D-01  0.000000D+00                             NZ=T
 IS=    27 IAt=    10 ISR=     1 T=0 IP=      1 IndIP=     65 IndIPD=      0 C=  2.149354D-01  0.000000D+00                             NZ=T
 IS=    27 IAt=    10 ISR=     1 T=0 IP=      2 IndIP=     66 IndIPD=      1 C=  3.645712D-01  0.000000D+00                             NZ=T
 IS=    27 IAt=    10 ISR=     1 T=0 IP=      3 IndIP=     67 IndIPD=      2 C=  4.150514D-01  0.000000D+00                             NZ=T
 IS=    28 IAt=    10 ISR=     2 T=0 IP=      1 IndIP=     68 IndIPD=      0 C=  1.813806D-01  0.000000D+00                             NZ=T
 IS=    29 IAt=    11 ISR=     1 T=0 IP=      1 IndIP=     69 IndIPD=      0 C=  2.149354D-01  0.000000D+00                             NZ=T
 IS=    29 IAt=    11 ISR=     1 T=0 IP=      2 IndIP=     70 IndIPD=      1 C=  3.645712D-01  0.000000D+00                             NZ=T
 IS=    29 IAt=    11 ISR=     1 T=0 IP=      3 IndIP=     71 IndIPD=      2 C=  4.150514D-01  0.000000D+00                             NZ=T
 IS=    30 IAt=    11 ISR=     2 T=0 IP=      1 IndIP=     72 IndIPD=      0 C=  1.813806D-01  0.000000D+00                             NZ=T
 IS=    31 IAt=    12 ISR=     1 T=0 IP=      1 IndIP=     73 IndIPD=      0 C=  2.149354D-01  0.000000D+00                             NZ=T
 IS=    31 IAt=    12 ISR=     1 T=0 IP=      2 IndIP=     74 IndIPD=      1 C=  3.645712D-01  0.000000D+00                             NZ=T
 IS=    31 IAt=    12 ISR=     1 T=0 IP=      3 IndIP=     75 IndIPD=      2 C=  4.150514D-01  0.000000D+00                             NZ=T
 IS=    32 IAt=    12 ISR=     2 T=0 IP=      1 IndIP=     76 IndIPD=      0 C=  1.813806D-01  0.000000D+00                             NZ=T
 NAtoms=   12 NActive=   12 NUniq=   12 SFac= 1.00D+00 NAtFMM=   60 NAOKFM=F Big=F
 Integral buffers will be    131072 words long.
 Raffenetti 1 integral format.
 Two-electron integral symmetry is turned off.
 NPDir=0 NMtPBC=     1 NCelOv=     1 NCel=       1 NClECP=     1 NCelD=      1
         NCelK=      1 NCelE2=     1 NClLst=     1 CellRange=     0.0.
 One-electron integrals computed using PRISM.
 Entering OneElI...
 Calculate overlap and kinetic energy integrals
    NBasis =  76  MinDer = 0  MaxDer = 0
 Requested accuracy = 0.1000D-12
 PrsmSu:  NPrtUS=   2 ThrOK=T IAlg=1 NPAlg=2 LenDen=           0.
 Prism:   IPart=     0 DynPar=F LinDyn=F Incr=           2.
 PRISM was handed    67062872 working-precision words and   528 shell-pairs
 PRISM was handed    67062872 working-precision words and   528 shell-pairs
 IPart=  1 NShTot=         264 NBatch=          26 AvBLen=        10.2
 IPart=  0 NShTot=         264 NBatch=          26 AvBLen=        10.2
 PrSmSu:  NxtVal=              5.
 *** Overlap *** 
                1             2             3             4             5 
      1  0.100000D+01
      2  0.219059D+00  0.100000D+01
      3  0.000000D+00  0.000000D+00  0.100000D+01
      4  0.000000D+00  0.000000D+00  0.000000D+00  0.100000D+01
      5  0.000000D+00  0.000000D+00  0.000000D+00  0.000000D+00  0.100000D+01
      6  0.184261D+00  0.812273D+00  0.000000D+00  0.000000D+00  0.000000D+00
      7  0.000000D+00  0.000000D+00  0.569754D+00  0.000000D+00  0.000000D+00
      8  0.000000D+00  0.000000D+00  0.000000D+00  0.569754D+00  0.000000D+00
      9  0.000000D+00  0.000000D+00  0.000000D+00  0.000000D+00  0.569754D+00
     10  0.791027D-01  0.710235D+00  0.000000D+00  0.000000D+00  0.000000D+00
     11  0.791027D-01  0.710235D+00  0.000000D+00  0.000000D+00  0.000000D+00
     12  0.791027D-01  0.710235D+00  0.000000D+00  0.000000D+00  0.000000D+00
     13  0.000000D+00  0.000000D+00  0.000000D+00  0.000000D+00  0.000000D+00
     14  0.000000D+00  0.000000D+00  0.000000D+00  0.000000D+00  0.000000D+00
     15  0.000000D+00  0.000000D+00  0.000000D+00  0.000000D+00  0.000000D+00
     16  0.264342D-05  0.194482D-01  0.409891D-01 -0.735514D-02 -0.458709D-02
     17  0.114397D-01  0.178588D+00  0.266280D+00 -0.477816D-01 -0.297994D-01
     18 -0.262141D-01 -0.226218D+00 -0.286272D+00  0.688460D-01  0.429364D-01
     19  0.470390D-02  0.405929D-01  0.688460D-01  0.850426D-01 -0.770456D-02
     20  0.293362D-02  0.253161D-01  0.429364D-01 -0.770456D-02  0.925915D-01
     21  0.655899D-01  0.366167D+00  0.286834D+00 -0.514699D-01 -0.320996D-01
     22 -0.136869D+00 -0.562348D+00 -0.201377D+00  0.832665D-01  0.519298D-01
     23  0.245601D-01  0.100908D+00  0.832665D-01  0.247714D+00 -0.931836D-02
     24  0.153171D-01  0.629323D-01  0.519298D-01 -0.931836D-02  0.256844D+00
     25  0.685730D-01  0.361612D+00  0.406893D+00 -0.116699D+00 -0.727803D-01
     26  0.381798D-02  0.120114D+00  0.177110D+00  0.119048D-01 -0.198204D-01
     27  0.250151D-02  0.115205D+00  0.167489D+00 -0.300545D-01  0.850119D-02
     28 -0.207956D-01 -0.775552D-01 -0.114143D+00 -0.183566D+00  0.170077D-01
     29 -0.129693D-01 -0.483679D-01 -0.711864D-01  0.170077D-01 -0.200230D+00
     30  0.232723D-02  0.867920D-02  0.170077D-01  0.205429D-01  0.359296D-01
     31  0.328272D-01  0.274069D+00 -0.127613D+00  0.163267D+00  0.306206D+00
     32  0.922700D-01  0.476414D+00 -0.917288D-01  0.117357D+00  0.220103D+00
     33  0.329950D-01  0.274801D+00 -0.228524D+00 -0.993799D-01 -0.274133D+00
     34  0.923998D-01  0.476939D+00 -0.163951D+00 -0.712987D-01 -0.196673D+00
     35  0.107693D-03  0.129384D-01  0.214354D-01 -0.938743D-02 -0.126882D-01
     36  0.185250D-01  0.134903D+00  0.107080D+00 -0.468945D-01 -0.633834D-01
     37  0.110458D-03  0.131161D-01  0.258704D-01  0.106712D-02  0.747772D-02
     38  0.186587D-01  0.135670D+00  0.128191D+00  0.528774D-02  0.370531D-01
     39  0.999999D+00  0.219059D+00 -0.542337D-05 -0.262732D-03  0.359750D-03
     40  0.219059D+00  0.100000D+01 -0.255532D-05 -0.123791D-03  0.169503D-03
     41  0.542337D-05  0.255532D-05  0.100000D+01  0.000000D+00  0.000000D+00
     42  0.262732D-03  0.123791D-03  0.000000D+00  0.100000D+01  0.000000D+00
     43 -0.359750D-03 -0.169503D-03  0.000000D+00  0.000000D+00  0.100000D+01
     44  0.184261D+00  0.812273D+00 -0.119406D-05 -0.578456D-04  0.792060D-04
     45  0.000000D+00  0.254001D-05  0.569754D+00  0.000000D+00  0.000000D+00
     46  0.360863D-04  0.123049D-03  0.000000D+00  0.569754D+00  0.000000D+00
     47 -0.494118D-04 -0.168487D-03  0.000000D+00  0.000000D+00  0.569754D+00
     48  0.791027D-01  0.710235D+00  0.243936D-05 -0.127707D-03  0.174864D-03
     49  0.791027D-01  0.710235D+00 -0.263614D-05  0.118174D-03  0.174864D-03
     50  0.791028D-01  0.710235D+00 -0.263614D-05 -0.127707D-03 -0.161811D-03
     51  0.000000D+00  0.000000D+00  0.212939D-03  0.439552D-05  0.000000D+00
     52  0.000000D+00  0.000000D+00 -0.291570D-03  0.000000D+00  0.439552D-05
     53  0.000000D+00  0.000000D+00  0.000000D+00 -0.291569D-03  0.212939D-03
     54  0.263708D-05  0.194356D-01  0.409660D-01 -0.735492D-02 -0.458477D-02
     55  0.114300D-01  0.178519D+00  0.266191D+00 -0.477912D-01 -0.297912D-01
     56 -0.261941D-01 -0.226147D+00 -0.286205D+00  0.688629D-01  0.429264D-01
     57  0.470282D-02  0.406017D-01  0.688629D-01  0.849888D-01 -0.770689D-02
     58  0.293156D-02  0.253095D-01  0.429264D-01 -0.770689D-02  0.925481D-01
     59  0.655726D-01  0.366096D+00  0.286802D+00 -0.514917D-01 -0.320979D-01
     60 -0.136846D+00 -0.562292D+00 -0.201422D+00  0.833094D-01  0.519319D-01
     61  0.245690D-01  0.100952D+00  0.833094D-01  0.247645D+00 -0.932370D-02
     62  0.153154D-01  0.629297D-01  0.519319D-01 -0.932370D-02  0.256790D+00
     63  0.685251D-01  0.361519D+00  0.406826D+00 -0.116733D+00 -0.727669D-01
     64  0.381737D-02  0.120075D+00  0.177069D+00  0.119024D-01 -0.198169D-01
     65  0.249962D-02  0.115158D+00  0.167434D+00 -0.300606D-01  0.849781D-02
     66 -0.207922D-01 -0.775820D-01 -0.114187D+00 -0.183465D+00  0.170142D-01
     67 -0.129610D-01 -0.483616D-01 -0.711794D-01  0.170142D-01 -0.200153D+00
     68  0.232699D-02  0.868271D-02  0.170142D-01  0.205327D-01  0.359349D-01
     69  0.328858D-01  0.274325D+00 -0.127901D+00  0.163760D+00  0.306134D+00
     70  0.923154D-01  0.476598D+00 -0.918747D-01  0.117633D+00  0.219904D+00
     71  0.329392D-01  0.274558D+00 -0.228456D+00 -0.989887D-01 -0.274001D+00
     72  0.923567D-01  0.476765D+00 -0.164006D+00 -0.710630D-01 -0.196702D+00
     73  0.107491D-03  0.129253D-01  0.214111D-01 -0.937474D-02 -0.126876D-01
     74  0.185152D-01  0.134847D+00  0.107022D+00 -0.468592D-01 -0.634184D-01
     75  0.110570D-03  0.131233D-01  0.258800D-01  0.108164D-02  0.749103D-02
     76  0.186641D-01  0.135700D+00  0.128197D+00  0.535794D-02  0.371069D-01
                6             7             8             9            10 
      6  0.100000D+01
      7  0.000000D+00  0.100000D+01
      8  0.000000D+00  0.000000D+00  0.100000D+01
      9  0.000000D+00  0.000000D+00  0.000000D+00  0.100000D+01
     10  0.629936D+00  0.000000D+00  0.000000D+00  0.000000D+00  0.100000D+01
     11  0.629936D+00  0.000000D+00  0.000000D+00  0.000000D+00  0.333333D+00
     12  0.629936D+00  0.000000D+00  0.000000D+00  0.000000D+00  0.333333D+00
     13  0.000000D+00  0.000000D+00  0.000000D+00  0.000000D+00  0.000000D+00
     14  0.000000D+00  0.000000D+00  0.000000D+00  0.000000D+00  0.000000D+00
     15  0.000000D+00  0.000000D+00  0.000000D+00  0.000000D+00  0.000000D+00
     16  0.556858D-01  0.105656D+00 -0.189591D-01 -0.118240D-01  0.521564D-01
     17  0.314927D+00  0.496906D+00 -0.891655D-01 -0.556088D-01  0.325575D+00
     18 -0.184338D+00 -0.110138D+00  0.537193D-01  0.335025D-01 -0.362889D+00
     19  0.330778D-01  0.537193D-01  0.179592D+00 -0.601173D-02  0.100756D+00
     20  0.206292D-01  0.335025D-01 -0.601173D-02  0.185482D+00  0.628375D-01
     21  0.570149D+00  0.618591D+00 -0.111001D+00 -0.692266D-01  0.375419D+00
     22 -0.551798D+00 -0.322336D-01  0.107428D+00  0.669984D-01 -0.419071D+00
     23  0.990154D-01  0.107428D+00  0.547170D+00 -0.120223D-01  0.116308D+00
     24  0.617517D-01  0.669984D-01 -0.120223D-01  0.558949D+00  0.725363D-01
     25  0.369623D+00  0.406184D+00 -0.106715D+00 -0.665538D-01  0.452725D+00
     26  0.280755D+00  0.451724D+00 -0.472289D-01 -0.505524D-01  0.200074D+00
     27  0.278949D+00  0.448817D+00 -0.805363D-01 -0.291293D-01  0.184603D+00
     28 -0.285391D-01 -0.166215D-01 -0.155027D+00  0.513872D-02 -0.155518D+00
     29 -0.177987D-01 -0.103661D-01  0.513872D-02 -0.160062D+00 -0.969900D-01
     30  0.319382D-02  0.513872D-02  0.173491D-01  0.287218D-01  0.273502D-01
     31  0.377282D+00 -0.177770D+00  0.227438D+00  0.426558D+00  0.158164D+00
     32  0.704804D+00 -0.201064D+00  0.257240D+00  0.482451D+00  0.361116D+00
     33  0.377746D+00 -0.317764D+00 -0.138188D+00 -0.381184D+00  0.247276D+00
     34  0.705329D+00 -0.359225D+00 -0.156219D+00 -0.430920D+00  0.382586D+00
     35  0.929281D-01  0.188475D+00 -0.825408D-01 -0.111564D+00  0.188794D-01
     36  0.301185D+00  0.371415D+00 -0.162657D+00 -0.219851D+00  0.133059D+00
     37  0.935119D-01  0.225732D+00  0.931116D-02  0.652466D-01  0.259472D-01
     38  0.302334D+00  0.443736D+00  0.183036D-01  0.128260D+00  0.152734D+00
     39  0.184261D+00  0.000000D+00 -0.360863D-04  0.494118D-04  0.791027D-01
     40  0.812273D+00 -0.254001D-05 -0.123049D-03  0.168487D-03  0.710235D+00
     41  0.119406D-05  0.569754D+00  0.000000D+00  0.000000D+00 -0.243936D-05
     42  0.578456D-04  0.000000D+00  0.569754D+00  0.000000D+00  0.127707D-03
     43 -0.792060D-04  0.000000D+00  0.000000D+00  0.569754D+00 -0.174864D-03
     44  0.100000D+01 -0.209575D-05 -0.101527D-03  0.139018D-03  0.629936D+00
     45  0.209575D-05  0.100000D+01  0.000000D+00  0.000000D+00  0.126081D-05
     46  0.101527D-03  0.000000D+00  0.100000D+01  0.000000D+00  0.105634D-03
     47 -0.139018D-03  0.000000D+00  0.000000D+00  0.100000D+01 -0.144641D-03
     48  0.629936D+00 -0.126081D-05 -0.105634D-03  0.144641D-03  0.100000D+01
     49  0.629936D+00 -0.218052D-05 -0.610790D-04  0.144641D-03  0.333333D+00
     50  0.629936D+00 -0.218052D-05 -0.105634D-03  0.836334D-04  0.333333D+00
     51  0.000000D+00  0.385857D-04  0.000000D+00  0.000000D+00  0.000000D+00
     52  0.000000D+00 -0.528341D-04  0.000000D+00  0.000000D+00  0.000000D+00
     53  0.000000D+00  0.000000D+00 -0.528341D-04  0.385857D-04  0.000000D+00
     54  0.556739D-01  0.105643D+00 -0.189669D-01 -0.118232D-01  0.521180D-01
     55  0.314871D+00  0.496865D+00 -0.892057D-01 -0.556073D-01  0.325466D+00
     56 -0.184321D+00 -0.110174D+00  0.537482D-01  0.335045D-01 -0.362808D+00
     57  0.330925D-01  0.537482D-01  0.179547D+00 -0.601531D-02  0.100780D+00
     58  0.206286D-01  0.335045D-01 -0.601531D-02  0.185447D+00  0.628221D-01
     59  0.570080D+00  0.618574D+00 -0.111057D+00 -0.692286D-01  0.375361D+00
     60 -0.551782D+00 -0.323413D-01  0.107492D+00  0.670066D-01 -0.419059D+00
     61  0.990654D-01  0.107492D+00  0.547079D+00 -0.120302D-01  0.116363D+00
     62  0.617535D-01  0.670066D-01 -0.120302D-01  0.558879D+00  0.725360D-01
     63  0.369573D+00  0.406176D+00 -0.106768D+00 -0.665549D-01  0.452676D+00
     64  0.280708D+00  0.451690D+00 -0.472510D-01 -0.505516D-01  0.200033D+00
     65  0.278899D+00  0.448778D+00 -0.805723D-01 -0.291285D-01  0.184538D+00
     66 -0.285545D-01 -0.166374D-01 -0.155003D+00  0.514226D-02 -0.155587D+00
     67 -0.177998D-01 -0.103711D-01  0.514226D-02 -0.160047D+00 -0.969866D-01
     68  0.319572D-02  0.514226D-02  0.173474D-01  0.287344D-01  0.273614D-01
     69  0.377444D+00 -0.178058D+00  0.227980D+00  0.426185D+00  0.158447D+00
     70  0.704987D+00 -0.201355D+00  0.257808D+00  0.481947D+00  0.361292D+00
     71  0.377592D+00 -0.317862D+00 -0.137728D+00 -0.381230D+00  0.247175D+00
     72  0.705154D+00 -0.359395D+00 -0.155724D+00 -0.431043D+00  0.382476D+00
     73  0.928850D-01  0.188368D+00 -0.824761D-01 -0.111622D+00  0.188530D-01
     74  0.301100D+00  0.371272D+00 -0.162560D+00 -0.220005D+00  0.132988D+00
     75  0.935355D-01  0.225745D+00  0.943494D-02  0.653426D-01  0.259556D-01
     76  0.302380D+00  0.443718D+00  0.185450D-01  0.128435D+00  0.152747D+00
               11            12            13            14            15 
     11  0.100000D+01
     12  0.333333D+00  0.100000D+01
     13  0.000000D+00  0.000000D+00  0.100000D+01
     14  0.000000D+00  0.000000D+00  0.000000D+00  0.100000D+01
     15  0.000000D+00  0.000000D+00  0.000000D+00  0.000000D+00  0.100000D+01
     16  0.252041D-02  0.151132D-02 -0.159402D-01 -0.994122D-02  0.178387D-02
     17  0.743052D-01  0.691969D-01 -0.806934D-01 -0.503251D-01  0.903040D-02
     18 -0.109848D+00 -0.100666D+00  0.114180D+00  0.712093D-01 -0.162319D-01
     19 -0.159278D-01  0.180637D-01  0.145975D+00 -0.162319D-01 -0.163361D-01
     20  0.122931D-01 -0.109610D-01 -0.162319D-01  0.161879D+00 -0.290478D-01
     21  0.254354D+00  0.251893D+00 -0.388790D-01 -0.242472D-01  0.435095D-02
     22 -0.439146D+00 -0.434897D+00  0.315235D-01  0.196599D-01 -0.751198D-02
     23  0.376917D-01  0.780385D-01  0.186358D+00 -0.751198D-02 -0.208553D-01
     24  0.491449D-01  0.230312D-01 -0.751198D-02  0.193718D+00 -0.347610D-01
     25  0.200074D+00  0.184603D+00 -0.155518D+00 -0.969900D-01  0.273502D-01
     26  0.867863D-01  0.384296D-01  0.379997D-01 -0.317296D-01 -0.425255D-02
     27  0.384296D-01  0.918466D-01 -0.469424D-01  0.261524D-01 -0.469283D-02
     28  0.379997D-01 -0.469424D-01 -0.285275D+00  0.301446D-01  0.410476D-01
     29 -0.317296D-01  0.261524D-01  0.301446D-01 -0.314811D+00  0.726317D-01
     30 -0.425255D-02 -0.469283D-02  0.410476D-01  0.726317D-01  0.769219D-01
     31  0.183860D+00  0.350125D+00 -0.894113D-01 -0.167690D+00  0.214542D+00
     32  0.367232D+00  0.406807D+00 -0.212820D-01 -0.399142D-01  0.510660D-01
     33  0.142612D+00  0.303939D+00  0.972225D-01  0.268182D+00  0.116626D+00
     34  0.357734D+00  0.396040D+00  0.230846D-01  0.636773D-01  0.276918D-01
     35  0.599274D-02  0.852135D-02 -0.120946D-01 -0.163473D-01  0.715912D-02
     36  0.967120D-01  0.103844D+00 -0.341127D-01 -0.461073D-01  0.201922D-01
     37  0.302241D-02  0.490189D-02  0.164065D-02  0.114966D-01  0.474221D-03
     38  0.887436D-01  0.939898D-01  0.457959D-02  0.320908D-01  0.132371D-02
     39  0.791027D-01  0.791028D-01  0.000000D+00  0.000000D+00  0.000000D+00
     40  0.710235D+00  0.710235D+00  0.000000D+00  0.000000D+00  0.000000D+00
     41  0.263614D-05  0.263614D-05 -0.212939D-03  0.291570D-03  0.000000D+00
     42 -0.118174D-03  0.127707D-03 -0.439552D-05  0.000000D+00  0.291569D-03
     43 -0.174864D-03  0.161811D-03  0.000000D+00 -0.439552D-05 -0.212939D-03
     44  0.629936D+00  0.629936D+00  0.000000D+00  0.000000D+00  0.000000D+00
     45  0.218052D-05  0.218052D-05 -0.385857D-04  0.528341D-04  0.000000D+00
     46  0.610790D-04  0.105634D-03  0.000000D+00  0.000000D+00  0.528341D-04
     47 -0.144641D-03 -0.836334D-04  0.000000D+00  0.000000D+00 -0.385857D-04
     48  0.333333D+00  0.333333D+00  0.000000D+00  0.000000D+00  0.000000D+00
     49  0.100000D+01  0.333333D+00  0.000000D+00  0.000000D+00  0.000000D+00
     50  0.333333D+00  0.100000D+01  0.000000D+00  0.000000D+00  0.000000D+00
     51  0.000000D+00  0.000000D+00  0.100000D+01  0.000000D+00  0.000000D+00
     52  0.000000D+00  0.000000D+00  0.000000D+00  0.100000D+01  0.000000D+00
     53  0.000000D+00  0.000000D+00  0.000000D+00  0.000000D+00  0.100000D+01
     54  0.252019D-02  0.151014D-02 -0.159370D-01 -0.993450D-02  0.178361D-02
     55  0.742783D-01  0.691630D-01 -0.807129D-01 -0.503133D-01  0.903311D-02
     56 -0.109820D+00 -0.100625D+00  0.114215D+00  0.711969D-01 -0.162370D-01
     57 -0.159254D-01  0.180659D-01  0.145878D+00 -0.162370D-01 -0.163261D-01
     58  0.122906D-01 -0.109563D-01 -0.162370D-01  0.161804D+00 -0.290498D-01
     59  0.254304D+00  0.251839D+00 -0.388985D-01 -0.242478D-01  0.435339D-02
     60 -0.439100D+00 -0.434844D+00  0.315489D-01  0.196664D-01 -0.751689D-02
     61  0.377087D-01  0.780706D-01  0.186320D+00 -0.751689D-02 -0.208522D-01
     62  0.491426D-01  0.230298D-01 -0.751689D-02  0.193692D+00 -0.347750D-01
     63  0.200033D+00  0.184538D+00 -0.155587D+00 -0.969866D-01  0.273614D-01
     64  0.867314D-01  0.384163D-01  0.379993D-01 -0.317259D-01 -0.425275D-02
     65  0.384163D-01  0.917979D-01 -0.469526D-01  0.261448D-01 -0.469396D-02
     66  0.379993D-01 -0.469526D-01 -0.285135D+00  0.301597D-01  0.410276D-01
     67 -0.317259D-01  0.261448D-01  0.301597D-01 -0.314717D+00  0.726450D-01
     68 -0.425275D-02 -0.469396D-02  0.410276D-01  0.726450D-01  0.768642D-01
     69  0.184337D+00  0.349951D+00 -0.898071D-01 -0.167885D+00  0.214955D+00
     70  0.367449D+00  0.406835D+00 -0.213579D-01 -0.399264D-01  0.511204D-01
     71  0.142311D+00  0.303782D+00  0.968897D-01  0.268191D+00  0.116206D+00
     72  0.357556D+00  0.395927D+00  0.230243D-01  0.637312D-01  0.276144D-01
     73  0.598346D-02  0.852193D-02 -0.120747D-01 -0.163416D-01  0.715510D-02
     74  0.966621D-01  0.103827D+00 -0.340826D-01 -0.461268D-01  0.201964D-01
     75  0.302543D-02  0.490983D-02  0.166283D-02  0.115161D-01  0.481311D-03
     76  0.887685D-01  0.940263D-01  0.463955D-02  0.321317D-01  0.134293D-02
               16            17            18            19            20 
     16  0.100000D+01
     17  0.222216D+00  0.100000D+01
     18  0.000000D+00  0.000000D+00  0.100000D+01
     19  0.000000D+00  0.000000D+00  0.000000D+00  0.100000D+01
     20  0.000000D+00  0.000000D+00  0.000000D+00  0.000000D+00  0.100000D+01
     21  0.171869D+00  0.775507D+00  0.000000D+00  0.000000D+00  0.000000D+00
     22  0.000000D+00  0.000000D+00  0.519296D+00  0.000000D+00  0.000000D+00
     23  0.000000D+00  0.000000D+00  0.000000D+00  0.519296D+00  0.000000D+00
     24  0.000000D+00  0.000000D+00  0.000000D+00  0.000000D+00  0.519296D+00
     25  0.504134D-01  0.636041D+00  0.000000D+00  0.000000D+00  0.000000D+00
     26  0.504134D-01  0.636041D+00  0.000000D+00  0.000000D+00  0.000000D+00
     27  0.504134D-01  0.636041D+00  0.000000D+00  0.000000D+00  0.000000D+00
     28  0.000000D+00  0.000000D+00  0.000000D+00  0.000000D+00  0.000000D+00
     29  0.000000D+00  0.000000D+00  0.000000D+00  0.000000D+00  0.000000D+00
     30  0.000000D+00  0.000000D+00  0.000000D+00  0.000000D+00  0.000000D+00
     31  0.455086D-04  0.457178D-02 -0.748461D-02  0.324096D-02  0.478472D-02
     32  0.130526D-01  0.932371D-01 -0.662090D-01  0.286696D-01  0.423257D-01
     33  0.546193D-04  0.511010D-02 -0.989816D-02 -0.342851D-03 -0.341607D-02
     34  0.137225D-01  0.972401D-01 -0.816327D-01 -0.282758D-02 -0.281732D-01
     35  0.330995D-01  0.254012D+00  0.115844D+00 -0.152205D+00 -0.257001D+00
     36  0.785750D-01  0.420086D+00  0.704570D-01 -0.925726D-01 -0.156310D+00
     37  0.334433D-01  0.255624D+00  0.214041D+00  0.960772D-01  0.220382D+00
     38  0.787932D-01  0.421062D+00  0.129570D+00  0.581606D-01  0.133409D+00
     39  0.264345D-05  0.114397D-01 -0.262143D-01  0.470119D-02  0.293738D-02
     40  0.194482D-01  0.178589D+00 -0.226219D+00  0.405694D-01  0.253484D-01
     41  0.409893D-01  0.266281D+00 -0.286275D+00  0.688064D-01  0.429913D-01
     42 -0.735089D-02 -0.477540D-01  0.688064D-01  0.850572D-01 -0.770992D-02
     43 -0.459295D-02 -0.298374D-01  0.429913D-01 -0.770992D-02  0.925794D-01
     44  0.556859D-01  0.314927D+00 -0.184338D+00  0.330586D-01  0.206555D-01
     45  0.105656D+00  0.496908D+00 -0.110140D+00  0.536883D-01  0.335453D-01
     46 -0.189481D-01 -0.891138D-01  0.536883D-01  0.179603D+00 -0.601591D-02
     47 -0.118391D-01 -0.556797D-01  0.335453D-01 -0.601591D-02  0.185473D+00
     48  0.521568D-01  0.325577D+00 -0.362893D+00  0.100698D+00  0.629180D-01
     49  0.251851D-02  0.742956D-01 -0.109831D+00 -0.159217D-01  0.123069D-01
     50  0.151296D-02  0.692053D-01 -0.100681D+00  0.180559D-01 -0.109734D-01
     51 -0.159310D-01 -0.806469D-01  0.114115D+00  0.146006D+00 -0.162433D-01
     52 -0.995397D-02 -0.503895D-01  0.713007D-01 -0.162433D-01  0.161854D+00
     53  0.178511D-02  0.903668D-02 -0.162433D-01 -0.163604D-01 -0.290264D-01
     54  0.999999D+00  0.222216D+00  0.284630D-03 -0.343502D-03 -0.515739D-04
     55  0.222216D+00  0.100000D+01  0.130237D-03 -0.157175D-03 -0.235985D-04
     56 -0.284630D-03 -0.130237D-03  0.100000D+01  0.000000D+00  0.000000D+00
     57  0.343502D-03  0.157175D-03  0.000000D+00  0.100000D+01  0.000000D+00
     58  0.515739D-04  0.235985D-04  0.000000D+00  0.000000D+00  0.100000D+01
     59  0.171869D+00  0.775507D+00  0.528688D-04 -0.638041D-04 -0.957965D-05
     60 -0.338658D-04 -0.121420D-03  0.519296D+00  0.000000D+00  0.000000D+00
     61  0.408705D-04  0.146535D-03  0.000000D+00  0.519296D+00  0.000000D+00
     62  0.613636D-05  0.220009D-04  0.000000D+00  0.000000D+00  0.519296D+00
     63  0.504134D-01  0.636041D+00 -0.147510D-03 -0.117127D-03 -0.175856D-04
     64  0.504134D-01  0.636041D+00  0.970526D-04  0.178020D-03 -0.175856D-04
     65  0.504134D-01  0.636041D+00  0.970526D-04 -0.117127D-03  0.267282D-04
     66  0.000000D+00  0.000000D+00  0.255605D-03 -0.211797D-03  0.000000D+00
     67  0.000000D+00  0.000000D+00  0.383769D-04  0.000000D+00 -0.211797D-03
     68  0.000000D+00  0.000000D+00  0.000000D+00  0.383769D-04  0.255605D-03
     69  0.454779D-04  0.456990D-02 -0.748353D-02  0.324391D-02  0.477732D-02
     70  0.130502D-01  0.932226D-01 -0.662166D-01  0.287032D-01  0.422712D-01
     71  0.543612D-04  0.509536D-02 -0.987160D-02 -0.337472D-03 -0.340825D-02
     72  0.137047D-01  0.971341D-01 -0.815620D-01 -0.278829D-02 -0.281599D-01
     73  0.330154D-01  0.253617D+00  0.115589D+00 -0.151869D+00 -0.256849D+00
     74  0.785215D-01  0.419846D+00  0.703838D-01 -0.924750D-01 -0.156398D+00
     75  0.333677D-01  0.255270D+00  0.213591D+00  0.962554D-01  0.220254D+00
     76  0.787454D-01  0.420848D+00  0.129431D+00  0.583285D-01  0.133469D+00
               21            22            23            24            25 
     21  0.100000D+01
     22  0.000000D+00  0.100000D+01
     23  0.000000D+00  0.000000D+00  0.100000D+01
     24  0.000000D+00  0.000000D+00  0.000000D+00  0.100000D+01
     25  0.670250D+00  0.000000D+00  0.000000D+00  0.000000D+00  0.100000D+01
     26  0.670250D+00  0.000000D+00  0.000000D+00  0.000000D+00  0.333333D+00
     27  0.670250D+00  0.000000D+00  0.000000D+00  0.000000D+00  0.333333D+00
     28  0.000000D+00  0.000000D+00  0.000000D+00  0.000000D+00  0.000000D+00
     29  0.000000D+00  0.000000D+00  0.000000D+00  0.000000D+00  0.000000D+00
     30  0.000000D+00  0.000000D+00  0.000000D+00  0.000000D+00  0.000000D+00
     31  0.628914D-01 -0.136369D+00  0.590501D-01  0.871773D-01  0.152368D-01
     32  0.245865D+00 -0.301500D+00  0.130555D+00  0.192741D+00  0.122817D+00
     33  0.662201D-01 -0.169614D+00 -0.587505D-02 -0.585373D-01  0.227791D-01
     34  0.253141D+00 -0.366620D+00 -0.126990D-01 -0.126529D+00  0.145364D+00
     35  0.402531D+00  0.199826D+00 -0.262549D+00 -0.443317D+00  0.188736D+00
     36  0.699660D+00  0.194826D+00 -0.255979D+00 -0.432224D+00  0.385451D+00
     37  0.403692D+00  0.367664D+00  0.165035D+00  0.378557D+00  0.304051D+00
     38  0.700791D+00  0.358006D+00  0.160700D+00  0.368613D+00  0.409968D+00
     39  0.655900D-01 -0.136870D+00  0.245458D-01  0.153366D-01  0.685736D-01
     40  0.366167D+00 -0.562349D+00  0.100850D+00  0.630126D-01  0.361614D+00
     41  0.286835D+00 -0.201379D+00  0.832184D-01  0.519962D-01  0.406897D+00
     42 -0.514401D-01  0.832184D-01  0.247731D+00 -0.932483D-02 -0.116632D+00
     43 -0.321406D-01  0.519962D-01 -0.932483D-02  0.256829D+00 -0.728735D-01
     44  0.570149D+00 -0.551799D+00  0.989579D-01  0.618305D-01  0.369624D+00
     45  0.618593D+00 -0.322362D-01  0.107366D+00  0.670840D-01  0.406186D+00
     46 -0.110937D+00  0.107366D+00  0.547193D+00 -0.120306D-01 -0.106653D+00
     47 -0.693149D-01  0.670840D-01 -0.120306D-01  0.558931D+00 -0.666388D-01
     48  0.375420D+00 -0.419073D+00  0.116241D+00  0.726290D-01  0.452730D+00
     49  0.254350D+00 -0.439140D+00  0.376684D-01  0.492067D-01  0.200046D+00
     50  0.251897D+00 -0.434905D+00  0.779945D-01  0.230614D-01  0.184629D+00
     51 -0.388565D-01  0.315055D-01  0.186372D+00 -0.751721D-02 -0.155429D+00
     52 -0.242782D-01  0.196851D-01 -0.751721D-02  0.193707D+00 -0.971146D-01
     53  0.435397D-02 -0.751721D-02 -0.208835D-01 -0.347387D-01  0.273693D-01
     54  0.171869D+00  0.338658D-04 -0.408705D-04 -0.613636D-05  0.504134D-01
     55  0.775507D+00  0.121420D-03 -0.146535D-03 -0.220009D-04  0.636041D+00
     56 -0.528688D-04  0.519296D+00  0.000000D+00  0.000000D+00  0.147510D-03
     57  0.638041D-04  0.000000D+00  0.519296D+00  0.000000D+00  0.117127D-03
     58  0.957965D-05  0.000000D+00  0.000000D+00  0.519296D+00  0.175856D-04
     59  0.100000D+01  0.101809D-03 -0.122867D-03 -0.184474D-04  0.670250D+00
     60 -0.101809D-03  0.100000D+01  0.000000D+00  0.000000D+00 -0.506959D-04
     61  0.122867D-03  0.000000D+00  0.100000D+01  0.000000D+00  0.130196D-03
     62  0.184474D-04  0.000000D+00  0.000000D+00  0.100000D+01  0.195478D-04
     63  0.670250D+00  0.506959D-04 -0.130196D-03 -0.195478D-04  0.100000D+01
     64  0.670250D+00  0.107882D-03 -0.611817D-04 -0.195478D-04  0.333333D+00
     65  0.670250D+00  0.107882D-03 -0.130196D-03 -0.918593D-05  0.333333D+00
     66  0.000000D+00  0.597679D-04 -0.495244D-04  0.000000D+00  0.000000D+00
     67  0.000000D+00  0.897365D-05  0.000000D+00 -0.495244D-04  0.000000D+00
     68  0.000000D+00  0.000000D+00  0.897365D-05  0.597679D-04  0.000000D+00
     69  0.628794D-01 -0.136380D+00  0.591173D-01  0.870622D-01  0.152374D-01
     70  0.245838D+00 -0.301550D+00  0.130714D+00  0.192503D+00  0.122821D+00
     71  0.661315D-01 -0.169428D+00 -0.579209D-02 -0.584964D-01  0.227218D-01
     72  0.252950D+00 -0.366435D+00 -0.125270D-01 -0.126514D+00  0.145233D+00
     73  0.402246D+00  0.199593D+00 -0.262240D+00 -0.443513D+00  0.188385D+00
     74  0.699382D+00  0.194660D+00 -0.255758D+00 -0.432551D+00  0.385217D+00
     75  0.403437D+00  0.367229D+00  0.165493D+00  0.378686D+00  0.303416D+00
     76  0.700543D+00  0.357682D+00  0.161191D+00  0.368841D+00  0.409719D+00
               26            27            28            29            30 
     26  0.100000D+01
     27  0.333333D+00  0.100000D+01
     28  0.000000D+00  0.000000D+00  0.100000D+01
     29  0.000000D+00  0.000000D+00  0.000000D+00  0.100000D+01
     30  0.000000D+00  0.000000D+00  0.000000D+00  0.000000D+00  0.100000D+01
     31  0.477302D-02  0.762135D-02 -0.965901D-02 -0.142599D-01  0.617476D-02
     32  0.889353D-01  0.981583D-01 -0.312761D-01 -0.461737D-01  0.199940D-01
     33  0.266545D-02  0.503989D-02  0.120816D-02  0.120378D-01  0.416963D-03
     34  0.847306D-01  0.918884D-01  0.364204D-02  0.362882D-01  0.125695D-02
     35  0.223499D+00  0.376447D+00 -0.108924D+00 -0.183919D+00  0.241649D+00
     36  0.392680D+00  0.424487D+00 -0.226518D-01 -0.382478D-01  0.502533D-01
     37  0.174475D+00  0.313809D+00  0.126162D+00  0.289390D+00  0.129899D+00
     38  0.383153D+00  0.411987D+00  0.261085D-01  0.598877D-01  0.268820D-01
     39  0.381549D-02  0.250366D-02 -0.207836D-01 -0.129859D-01  0.232886D-02
     40  0.120105D+00  0.115213D+00 -0.775105D-01 -0.484298D-01  0.868524D-02
     41  0.177092D+00  0.167505D+00 -0.114078D+00 -0.712778D-01  0.170195D-01
     42  0.119012D-01 -0.300399D-01 -0.183599D+00  0.170195D-01  0.205727D-01
     43 -0.198437D-01  0.851030D-02  0.170195D-01 -0.200204D+00  0.359039D-01
     44  0.280752D+00  0.278952D+00 -0.285227D-01 -0.178214D-01  0.319603D-02
     45  0.451720D+00  0.448823D+00 -0.166120D-01 -0.103795D-01  0.514230D-02
     46 -0.472005D-01 -0.804904D-01 -0.155037D+00  0.514230D-02  0.173723D-01
     47 -0.506163D-01 -0.291670D-01  0.514230D-02 -0.160054D+00  0.287036D-01
     48  0.200046D+00  0.184629D+00 -0.155429D+00 -0.971146D-01  0.273693D-01
     49  0.867957D-01  0.384292D-01  0.379853D-01 -0.317655D-01 -0.425635D-02
     50  0.384292D-01  0.918382D-01 -0.469217D-01  0.261819D-01 -0.469538D-02
     51  0.379853D-01 -0.469217D-01 -0.285334D+00  0.301658D-01  0.411082D-01
     52 -0.317655D-01  0.261819D-01  0.301658D-01 -0.314765D+00  0.725788D-01
     53 -0.425635D-02 -0.469538D-02  0.411082D-01  0.725788D-01  0.769255D-01
     54  0.504134D-01  0.504134D-01  0.000000D+00  0.000000D+00  0.000000D+00
     55  0.636041D+00  0.636041D+00  0.000000D+00  0.000000D+00  0.000000D+00
     56 -0.970526D-04 -0.970526D-04 -0.255605D-03 -0.383769D-04  0.000000D+00
     57 -0.178020D-03  0.117127D-03  0.211797D-03  0.000000D+00 -0.383769D-04
     58  0.175856D-04 -0.267282D-04  0.000000D+00  0.211797D-03 -0.255605D-03
     59  0.670250D+00  0.670250D+00  0.000000D+00  0.000000D+00  0.000000D+00
     60 -0.107882D-03 -0.107882D-03 -0.597679D-04 -0.897365D-05  0.000000D+00
     61  0.611817D-04  0.130196D-03  0.495244D-04  0.000000D+00 -0.897365D-05
     62  0.195478D-04  0.918593D-05  0.000000D+00  0.495244D-04 -0.597679D-04
     63  0.333333D+00  0.333333D+00  0.000000D+00  0.000000D+00  0.000000D+00
     64  0.100000D+01  0.333333D+00  0.000000D+00  0.000000D+00  0.000000D+00
     65  0.333333D+00  0.100000D+01  0.000000D+00  0.000000D+00  0.000000D+00
     66  0.000000D+00  0.000000D+00  0.100000D+01  0.000000D+00  0.000000D+00
     67  0.000000D+00  0.000000D+00  0.000000D+00  0.100000D+01  0.000000D+00
     68  0.000000D+00  0.000000D+00  0.000000D+00  0.000000D+00  0.100000D+01
     69  0.477743D-02  0.760627D-02 -0.967041D-02 -0.142416D-01  0.617337D-02
     70  0.889421D-01  0.981043D-01 -0.313213D-01 -0.461269D-01  0.199948D-01
     71  0.265701D-02  0.502811D-02  0.118947D-02  0.120128D-01  0.410673D-03
     72  0.846348D-01  0.917958D-01  0.359235D-02  0.362804D-01  0.124029D-02
     73  0.223053D+00  0.376348D+00 -0.108629D+00 -0.183719D+00  0.241383D+00
     74  0.392436D+00  0.424353D+00 -0.226178D-01 -0.382523D-01  0.502586D-01
     75  0.174448D+00  0.313672D+00  0.126321D+00  0.289052D+00  0.130262D+00
     76  0.383001D+00  0.411843D+00  0.261696D-01  0.598819D-01  0.269860D-01
               31            32            33            34            35 
     31  0.100000D+01
     32  0.658292D+00  0.100000D+01
     33  0.111362D-01  0.121901D+00  0.100000D+01
     34  0.121901D+00  0.354620D+00  0.658292D+00  0.100000D+01
     35  0.252042D-04  0.102953D-01  0.127761D-02  0.507942D-01  0.100000D+01
     36  0.102953D-01  0.769907D-01  0.507942D-01  0.206646D+00  0.658292D+00
     37  0.108600D-02  0.475505D-01  0.287265D-04  0.108576D-01  0.215214D-01
     38  0.475505D-01  0.198393D+00  0.108576D-01  0.795693D-01  0.158656D+00
     39  0.328404D-01  0.922802D-01  0.329812D-01  0.923891D-01  0.107658D-03
     40  0.274127D+00  0.476456D+00  0.274741D+00  0.476896D+00  0.129361D-01
     41 -0.127643D+00 -0.917364D-01 -0.228465D+00 -0.163935D+00  0.214316D-01
     42  0.163351D+00  0.117400D+00 -0.993103D-01 -0.712600D-01 -0.938401D-02
     43  0.306219D+00  0.220079D+00 -0.274125D+00 -0.196698D+00 -0.126883D-01
     44  0.377319D+00  0.704845D+00  0.377708D+00  0.705285D+00  0.929206D-01
     45 -0.177786D+00 -0.201074D+00 -0.317730D+00 -0.359202D+00  0.188460D+00
     46  0.227522D+00  0.257325D+00 -0.138112D+00 -0.156140D+00 -0.825189D-01
     47  0.426515D+00  0.482384D+00 -0.381230D+00 -0.430990D+00 -0.111575D+00
     48  0.158205D+00  0.361150D+00  0.247204D+00  0.382547D+00  0.188754D-01
     49  0.183945D+00  0.367276D+00  0.142551D+00  0.357693D+00  0.599033D-02
     50  0.350130D+00  0.406824D+00  0.303934D+00  0.396020D+00  0.852161D-02
     51 -0.894608D-01 -0.212897D-01  0.971491D-01  0.230718D-01 -0.120898D-01
     52 -0.167704D+00 -0.399098D-01  0.268159D+00  0.636848D-01 -0.163468D-01
     53  0.214620D+00  0.510746D-01  0.116565D+00  0.276828D-01  0.715760D-02
     54  0.454504D-04  0.130480D-01  0.545742D-04  0.137194D-01  0.331174D-01
     55  0.456822D-02  0.932096D-01  0.510753D-02  0.972216D-01  0.254096D+00
     56 -0.747921D-02 -0.661938D-01 -0.989369D-02 -0.816218D-01  0.115850D+00
     57  0.323904D-02  0.286667D-01 -0.341950D-03 -0.282105D-02 -0.152218D+00
     58  0.478102D-02  0.423138D-01 -0.341421D-02 -0.281668D-01 -0.257090D+00
     59  0.628686D-01  0.245815D+00  0.662046D-01  0.253108D+00  0.402592D+00
     60 -0.136329D+00 -0.301460D+00 -0.169584D+00 -0.366594D+00  0.199793D+00
     61  0.590405D-01  0.130554D+00 -0.586125D-02 -0.126704D-01 -0.262513D+00
     62  0.871474D-01  0.192706D+00 -0.585217D-01 -0.126508D+00 -0.443373D+00
     63  0.152265D-01  0.122786D+00  0.227698D-01  0.145343D+00  0.188772D+00
     64  0.477018D-02  0.889118D-01  0.266398D-02  0.847139D-01  0.223530D+00
     65  0.761548D-02  0.981295D-01  0.503714D-02  0.918701D-01  0.376572D+00
     66 -0.965390D-02 -0.312752D-01  0.120505D-02  0.363385D-02 -0.108899D+00
     67 -0.142497D-01 -0.461641D-01  0.120319D-01  0.362822D-01 -0.183926D+00
     68  0.617118D-02  0.199924D-01  0.415852D-03  0.125400D-02  0.241664D+00
     69  0.999996D+00  0.658291D+00  0.111729D-01  0.122062D+00  0.252146D-04
     70  0.658291D+00  0.999999D+00  0.122062D+00  0.354909D+00  0.102970D-01
     71  0.111306D-01  0.121876D+00  0.999998D+00  0.658292D+00  0.127351D-02
     72  0.121876D+00  0.354576D+00  0.658292D+00  0.100000D+01  0.507279D-01
     73  0.251373D-04  0.102842D-01  0.127858D-02  0.508099D-01  0.999998D+00
     74  0.102842D-01  0.769392D-01  0.508099D-01  0.206685D+00  0.658292D+00
     75  0.108978D-02  0.476178D-01  0.287041D-04  0.108541D-01  0.214334D-01
     76  0.476178D-01  0.198567D+00  0.108541D-01  0.795537D-01  0.158397D+00
               36            37            38            39            40 
     36  0.100000D+01
     37  0.158656D+00  0.100000D+01
     38  0.417123D+00  0.658292D+00  0.100000D+01
     39  0.185233D-01  0.110494D-03  0.186604D-01  0.100000D+01
     40  0.134893D+00  0.131184D-01  0.135680D+00  0.219059D+00  0.100000D+01
     41  0.107072D+00  0.258752D-01  0.128201D+00  0.000000D+00  0.000000D+00
     42 -0.468823D-01  0.106907D-02  0.529681D-02  0.000000D+00  0.000000D+00
     43 -0.633904D-01  0.747668D-02  0.370440D-01  0.000000D+00  0.000000D+00
     44  0.301170D+00  0.935196D-01  0.302349D+00  0.184261D+00  0.812273D+00
     45  0.371398D+00  0.225751D+00  0.443759D+00  0.000000D+00  0.000000D+00
     46 -0.162620D+00  0.932719D-02  0.183345D-01  0.000000D+00  0.000000D+00
     47 -0.219881D+00  0.652310D-01  0.128225D+00  0.000000D+00  0.000000D+00
     48  0.133048D+00  0.259529D-01  0.152747D+00  0.791027D-01  0.710235D+00
     49  0.967011D-01  0.302318D-02  0.887511D-01  0.791027D-01  0.710235D+00
     50  0.103841D+00  0.490172D-02  0.939940D-01  0.791027D-01  0.710235D+00
     51 -0.341037D-01  0.164370D-02  0.458747D-02  0.000000D+00  0.000000D+00
     52 -0.461122D-01  0.114954D-01  0.320831D-01  0.000000D+00  0.000000D+00
     53  0.201906D-01  0.474950D-03  0.132556D-02  0.000000D+00  0.000000D+00
     54  0.785865D-01  0.334463D-01  0.787951D-01  0.263711D-05  0.194356D-01
     55  0.420137D+00  0.255638D+00  0.421071D+00  0.114300D-01  0.178519D+00
     56  0.704436D-01  0.214017D+00  0.129550D+00 -0.261943D-01 -0.226148D+00
     57 -0.925573D-01  0.961277D-01  0.581887D-01  0.470011D-02  0.405783D-01
     58 -0.156325D+00  0.220402D+00  0.133416D+00  0.293531D-02  0.253419D-01
     59  0.699719D+00  0.403702D+00  0.700801D+00  0.655727D-01  0.366097D+00
     60  0.194781D+00  0.367610D+00  0.357950D+00 -0.136847D+00 -0.562294D+00
     61 -0.255927D+00  0.165116D+00  0.160776D+00  0.245548D-01  0.100894D+00
     62 -0.432249D+00  0.378578D+00  0.368629D+00  0.153349D-01  0.630100D-01
     63  0.385492D+00  0.304014D+00  0.409965D+00  0.685257D-01  0.361521D+00
     64  0.392719D+00  0.174516D+00  0.383167D+00  0.381489D-02  0.120066D+00
     65  0.424537D+00  0.313838D+00  0.411998D+00  0.250176D-02  0.115166D+00
     66 -0.226409D-01  0.126206D+00  0.261166D-01 -0.207803D-01 -0.775373D-01
     67 -0.382395D-01  0.289367D+00  0.598804D-01 -0.129777D-01 -0.484235D-01
     68  0.502437D-01  0.129972D+00  0.268958D-01  0.232861D-02  0.868875D-02
     69  0.102970D-01  0.108349D-02  0.475060D-01  0.328990D-01  0.274383D+00
     70  0.769987D-01  0.475060D-01  0.198278D+00  0.923256D-01  0.476639D+00
     71  0.507279D-01  0.286265D-04  0.108422D-01  0.329253D-01  0.274497D+00
     72  0.206479D+00  0.108422D-01  0.794994D-01  0.923459D-01  0.476721D+00
     73  0.658292D+00  0.214550D-01  0.158461D+00  0.107456D-03  0.129230D-01
     74  0.100000D+01  0.158461D+00  0.416807D+00  0.185135D-01  0.134837D+00
     75  0.158397D+00  0.999997D+00  0.658291D+00  0.110607D-03  0.131256D-01
     76  0.416704D+00  0.658291D+00  0.100000D+01  0.186658D-01  0.135711D+00
               41            42            43            44            45 
     41  0.100000D+01
     42  0.000000D+00  0.100000D+01
     43  0.000000D+00  0.000000D+00  0.100000D+01
     44  0.000000D+00  0.000000D+00  0.000000D+00  0.100000D+01
     45  0.569754D+00  0.000000D+00  0.000000D+00  0.000000D+00  0.100000D+01
     46  0.000000D+00  0.569754D+00  0.000000D+00  0.000000D+00  0.000000D+00
     47  0.000000D+00  0.000000D+00  0.569754D+00  0.000000D+00  0.000000D+00
     48  0.000000D+00  0.000000D+00  0.000000D+00  0.629936D+00  0.000000D+00
     49  0.000000D+00  0.000000D+00  0.000000D+00  0.629936D+00  0.000000D+00
     50  0.000000D+00  0.000000D+00  0.000000D+00  0.629936D+00  0.000000D+00
     51  0.000000D+00  0.000000D+00  0.000000D+00  0.000000D+00  0.000000D+00
     52  0.000000D+00  0.000000D+00  0.000000D+00  0.000000D+00  0.000000D+00
     53  0.000000D+00  0.000000D+00  0.000000D+00  0.000000D+00  0.000000D+00
     54  0.409662D-01 -0.735068D-02 -0.459063D-02  0.556740D-01  0.105644D+00
     55  0.266192D+00 -0.477635D-01 -0.298292D-01  0.314871D+00  0.496866D+00
     56 -0.286208D+00  0.688232D-01  0.429813D-01 -0.184322D+00 -0.110175D+00
     57  0.688232D-01  0.850033D-01 -0.771225D-02  0.330733D-01  0.537172D-01
     58  0.429813D-01 -0.771225D-02  0.925360D-01  0.206549D-01  0.335474D-01
     59  0.286803D+00 -0.514618D-01 -0.321389D-01  0.570080D+00  0.618575D+00
     60 -0.201424D+00  0.832613D-01  0.519982D-01 -0.551783D+00 -0.323439D-01
     61  0.832613D-01  0.247662D+00 -0.933018D-02  0.990079D-01  0.107430D+00
     62  0.519982D-01 -0.933018D-02  0.256775D+00  0.618323D-01  0.670922D-01
     63  0.406830D+00 -0.116666D+00 -0.728601D-01  0.369574D+00  0.406178D+00
     64  0.177051D+00  0.118988D-01 -0.198402D-01  0.280705D+00  0.451686D+00
     65  0.167450D+00 -0.300460D-01  0.850692D-02  0.278902D+00  0.448784D+00
     66 -0.114121D+00 -0.183497D+00  0.170261D-01 -0.285381D-01 -0.166280D-01
     67 -0.712708D-01  0.170261D-01 -0.200127D+00 -0.178225D-01 -0.103845D-01
     68  0.170261D-01  0.205625D-01  0.359093D-01  0.319794D-02  0.514585D-02
     69 -0.127931D+00  0.163844D+00  0.306146D+00  0.377481D+00 -0.178074D+00
     70 -0.918823D-01  0.117676D+00  0.219880D+00  0.705029D+00 -0.201366D+00
     71 -0.228397D+00 -0.989192D-01 -0.273992D+00  0.377553D+00 -0.317828D+00
     72 -0.163990D+00 -0.710244D-01 -0.196727D+00  0.705111D+00 -0.359371D+00
     73  0.214073D-01 -0.937132D-02 -0.126877D-01  0.928775D-01  0.188353D+00
     74  0.107014D+00 -0.468470D-01 -0.634254D-01  0.301085D+00  0.371255D+00
     75  0.258847D-01  0.108359D-02  0.749000D-02  0.935431D-01  0.225764D+00
     76  0.128207D+00  0.536702D-02  0.370979D-01  0.302395D+00  0.443741D+00
               46            47            48            49            50 
     46  0.100000D+01
     47  0.000000D+00  0.100000D+01
     48  0.000000D+00  0.000000D+00  0.100000D+01
     49  0.000000D+00  0.000000D+00  0.333333D+00  0.100000D+01
     50  0.000000D+00  0.000000D+00  0.333333D+00  0.333333D+00  0.100000D+01
     51  0.000000D+00  0.000000D+00  0.000000D+00  0.000000D+00  0.000000D+00
     52  0.000000D+00  0.000000D+00  0.000000D+00  0.000000D+00  0.000000D+00
     53  0.000000D+00  0.000000D+00  0.000000D+00  0.000000D+00  0.000000D+00
     54 -0.189559D-01 -0.118383D-01  0.521184D-01  0.251828D-02  0.151179D-02
     55 -0.891540D-01 -0.556783D-01  0.325468D+00  0.742688D-01  0.691714D-01
     56  0.537172D-01  0.335474D-01 -0.362812D+00 -0.109803D+00 -0.100640D+00
     57  0.179558D+00 -0.601949D-02  0.100722D+00 -0.159193D-01  0.180581D-01
     58 -0.601949D-02  0.185438D+00  0.629026D-01  0.123044D-01 -0.109687D-01
     59 -0.110993D+00 -0.693169D-01  0.375362D+00  0.254300D+00  0.251843D+00
     60  0.107430D+00  0.670922D-01 -0.419061D+00 -0.439094D+00 -0.434852D+00
     61  0.547102D+00 -0.120385D-01  0.116295D+00  0.376854D-01  0.780266D-01
     62 -0.120385D-01  0.558860D+00  0.726287D-01  0.492044D-01  0.230599D-01
     63 -0.106706D+00 -0.666399D-01  0.452682D+00  0.200005D+00  0.184564D+00
     64 -0.472226D-01 -0.506154D-01  0.200005D+00  0.867408D-01  0.384160D-01
     65 -0.805265D-01 -0.291662D-01  0.184564D+00  0.384160D-01  0.917895D-01
     66 -0.155013D+00  0.514585D-02 -0.155498D+00  0.379849D-01 -0.469319D-01
     67  0.514585D-02 -0.160039D+00 -0.971112D-01 -0.317618D-01  0.261742D-01
     68  0.173706D-01  0.287163D-01  0.273806D-01 -0.425655D-02 -0.469651D-02
     69  0.228064D+00  0.426142D+00  0.158488D+00  0.184423D+00  0.349956D+00
     70  0.257893D+00  0.481879D+00  0.361326D+00  0.367493D+00  0.406852D+00
     71 -0.137652D+00 -0.381276D+00  0.247103D+00  0.142250D+00  0.303776D+00
     72 -0.155644D+00 -0.431112D+00  0.382437D+00  0.357515D+00  0.395907D+00
     73 -0.824542D-01 -0.111633D+00  0.188490D-01  0.598106D-02  0.852218D-02
     74 -0.162522D+00 -0.220035D+00  0.132978D+00  0.966512D-01  0.103825D+00
     75  0.945099D-02  0.653270D-01  0.259613D-01  0.302621D-02  0.490966D-02
     76  0.185760D-01  0.128401D+00  0.152760D+00  0.887761D-01  0.940305D-01
               51            52            53            54            55 
     51  0.100000D+01
     52  0.000000D+00  0.100000D+01
     53  0.000000D+00  0.000000D+00  0.100000D+01
     54 -0.159279D-01 -0.994724D-02  0.178486D-02  0.100000D+01
     55 -0.806664D-01 -0.503777D-01  0.903939D-02  0.222216D+00  0.100000D+01
     56  0.114149D+00  0.712883D-01 -0.162484D-01  0.000000D+00  0.000000D+00
     57  0.145909D+00 -0.162484D-01 -0.163504D-01  0.000000D+00  0.000000D+00
     58 -0.162484D-01  0.161779D+00 -0.290284D-01  0.000000D+00  0.000000D+00
     59 -0.388761D-01 -0.242788D-01  0.435641D-02  0.171869D+00  0.775507D+00
     60  0.315309D-01  0.196916D-01 -0.752213D-02  0.000000D+00  0.000000D+00
     61  0.186334D+00 -0.752213D-02 -0.208804D-01  0.000000D+00  0.000000D+00
     62 -0.752213D-02  0.193681D+00 -0.347527D-01  0.000000D+00  0.000000D+00
     63 -0.155498D+00 -0.971112D-01  0.273806D-01  0.504134D-01  0.636041D+00
     64  0.379849D-01 -0.317618D-01 -0.425655D-02  0.504134D-01  0.636041D+00
     65 -0.469319D-01  0.261742D-01 -0.469651D-02  0.504134D-01  0.636041D+00
     66 -0.285194D+00  0.301808D-01  0.410882D-01  0.000000D+00  0.000000D+00
     67  0.301808D-01 -0.314672D+00  0.725921D-01  0.000000D+00  0.000000D+00
     68  0.410882D-01  0.725921D-01  0.768678D-01  0.000000D+00  0.000000D+00
     69 -0.898567D-01 -0.167899D+00  0.215032D+00  0.454197D-04  0.456634D-02
     70 -0.213656D-01 -0.399220D-01  0.511290D-01  0.130456D-01  0.931951D-01
     71  0.968165D-01  0.268168D+00  0.116144D+00  0.543162D-04  0.509279D-02
     72  0.230116D-01  0.637388D-01  0.276054D-01  0.137016D-01  0.971156D-01
     73 -0.120699D-01 -0.163412D-01  0.715357D-02  0.330333D-01  0.253701D+00
     74 -0.340737D-01 -0.461317D-01  0.201948D-01  0.785329D-01  0.419897D+00
     75  0.166588D-02  0.115149D-01  0.482040D-03  0.333707D-01  0.255284D+00
     76  0.464744D-02  0.321240D-01  0.134478D-02  0.787473D-01  0.420857D+00
               56            57            58            59            60 
     56  0.100000D+01
     57  0.000000D+00  0.100000D+01
     58  0.000000D+00  0.000000D+00  0.100000D+01
     59  0.000000D+00  0.000000D+00  0.000000D+00  0.100000D+01
     60  0.519296D+00  0.000000D+00  0.000000D+00  0.000000D+00  0.100000D+01
     61  0.000000D+00  0.519296D+00  0.000000D+00  0.000000D+00  0.000000D+00
     62  0.000000D+00  0.000000D+00  0.519296D+00  0.000000D+00  0.000000D+00
     63  0.000000D+00  0.000000D+00  0.000000D+00  0.670250D+00  0.000000D+00
     64  0.000000D+00  0.000000D+00  0.000000D+00  0.670250D+00  0.000000D+00
     65  0.000000D+00  0.000000D+00  0.000000D+00  0.670250D+00  0.000000D+00
     66  0.000000D+00  0.000000D+00  0.000000D+00  0.000000D+00  0.000000D+00
     67  0.000000D+00  0.000000D+00  0.000000D+00  0.000000D+00  0.000000D+00
     68  0.000000D+00  0.000000D+00  0.000000D+00  0.000000D+00  0.000000D+00
     69 -0.747813D-02  0.324199D-02  0.477363D-02  0.628567D-01 -0.136341D+00
     70 -0.662014D-01  0.287002D-01  0.422593D-01  0.245788D+00 -0.301510D+00
     71 -0.986714D-02 -0.336576D-03 -0.340639D-02  0.661160D-01 -0.169399D+00
     72 -0.815510D-01 -0.278177D-02 -0.281535D-01  0.252916D+00 -0.366409D+00
     73  0.115596D+00 -0.151882D+00 -0.256938D+00  0.402307D+00  0.199561D+00
     74  0.703703D-01 -0.924597D-01 -0.156414D+00  0.699441D+00  0.194615D+00
     75  0.213567D+00  0.963057D-01  0.220274D+00  0.403447D+00  0.367175D+00
     76  0.129411D+00  0.583566D-01  0.133476D+00  0.700553D+00  0.357626D+00
               61            62            63            64            65 
     61  0.100000D+01
     62  0.000000D+00  0.100000D+01
     63  0.000000D+00  0.000000D+00  0.100000D+01
     64  0.000000D+00  0.000000D+00  0.333333D+00  0.100000D+01
     65  0.000000D+00  0.000000D+00  0.333333D+00  0.333333D+00  0.100000D+01
     66  0.000000D+00  0.000000D+00  0.000000D+00  0.000000D+00  0.000000D+00
     67  0.000000D+00  0.000000D+00  0.000000D+00  0.000000D+00  0.000000D+00
     68  0.000000D+00  0.000000D+00  0.000000D+00  0.000000D+00  0.000000D+00
     69  0.591076D-01  0.870323D-01  0.152271D-01  0.477459D-02  0.760040D-02
     70  0.130713D+00  0.192467D+00  0.122790D+00  0.889185D-01  0.980756D-01
     71 -0.577832D-02 -0.584808D-01  0.227125D-01  0.265554D-02  0.502536D-02
     72 -0.124985D-01 -0.126494D+00  0.145212D+00  0.846181D-01  0.917776D-01
     73 -0.262203D+00 -0.443568D+00  0.188421D+00  0.223084D+00  0.376473D+00
     74 -0.255705D+00 -0.432576D+00  0.385259D+00  0.392474D+00  0.424403D+00
     75  0.165574D+00  0.378707D+00  0.303378D+00  0.174488D+00  0.313701D+00
     76  0.161267D+00  0.368858D+00  0.409716D+00  0.383015D+00  0.411854D+00
               66            67            68            69            70 
     66  0.100000D+01
     67  0.000000D+00  0.100000D+01
     68  0.000000D+00  0.000000D+00  0.100000D+01
     69 -0.966528D-02 -0.142315D-01  0.616979D-02  0.100000D+01
     70 -0.313204D-01 -0.461173D-01  0.199932D-01  0.658292D+00  0.100000D+01
     71  0.118637D-02  0.120070D-01  0.409567D-03  0.111674D-01  0.122038D+00
     72  0.358417D-02  0.362744D-01  0.123735D-02  0.122038D+00  0.354865D+00
     73 -0.108605D+00 -0.183727D+00  0.241399D+00  0.251478D-04  0.102859D-01
     74 -0.226069D-01 -0.382440D-01  0.502489D-01  0.102859D-01  0.769473D-01
     75  0.126366D+00  0.289029D+00  0.130335D+00  0.108727D-02  0.475732D-01
     76  0.261777D-01  0.598746D-01  0.269998D-01  0.475732D-01  0.198452D+00
               71            72            73            74            75 
     71  0.100000D+01
     72  0.658292D+00  0.100000D+01
     73  0.127448D-02  0.507436D-01  0.100000D+01
     74  0.507436D-01  0.206519D+00  0.658292D+00  0.100000D+01
     75  0.286043D-04  0.108388D-01  0.213673D-01  0.158203D+00  0.100000D+01
     76  0.108388D-01  0.794839D-01  0.158203D+00  0.416388D+00  0.658292D+00
               76 
     76  0.100000D+01
 *** Kinetic Energy *** 
                1             2             3             4             5 
      1  0.162076D+02
      2 -0.124757D+01  0.932246D+00
      3  0.000000D+00  0.000000D+00  0.217833D+01
      4  0.000000D+00  0.000000D+00  0.000000D+00  0.217833D+01
      5  0.000000D+00  0.000000D+00  0.000000D+00  0.000000D+00  0.217833D+01
      6  0.899505D-01  0.306718D+00  0.000000D+00  0.000000D+00  0.000000D+00
      7  0.000000D+00  0.000000D+00  0.376673D+00  0.000000D+00  0.000000D+00
      8  0.000000D+00  0.000000D+00  0.000000D+00  0.376673D+00  0.000000D+00
      9  0.000000D+00  0.000000D+00  0.000000D+00  0.000000D+00  0.376673D+00
     10 -0.524817D+00  0.520042D+00  0.000000D+00  0.000000D+00  0.000000D+00
     11 -0.524817D+00  0.520042D+00  0.000000D+00  0.000000D+00  0.000000D+00
     12 -0.524817D+00  0.520042D+00  0.000000D+00  0.000000D+00  0.000000D+00
     13  0.000000D+00  0.000000D+00  0.000000D+00  0.000000D+00  0.000000D+00
     14  0.000000D+00  0.000000D+00  0.000000D+00  0.000000D+00  0.000000D+00
     15  0.000000D+00  0.000000D+00  0.000000D+00  0.000000D+00  0.000000D+00
     16 -0.921212D-04 -0.276687D-01 -0.218473D-01  0.392031D-02  0.244493D-02
     17 -0.350838D-01 -0.202086D-01  0.916084D-01 -0.164383D-01 -0.102519D-01
     18  0.491893D-01 -0.100596D+00 -0.311586D+00  0.601264D-01  0.374983D-01
     19 -0.882660D-02  0.180510D-01  0.601264D-01  0.127004D-01 -0.672874D-02
     20 -0.550478D-02  0.112577D-01  0.374983D-01 -0.672874D-02  0.192931D-01
     21  0.821144D-02  0.688112D-01  0.141577D+00 -0.254047D-01 -0.158438D-01
     22 -0.725923D-01 -0.272815D+00 -0.246489D+00  0.674936D-01  0.420929D-01
     23  0.130261D-01  0.489542D-01  0.674936D-01  0.117531D+00 -0.755321D-02
     24  0.812380D-02  0.305307D-01  0.420929D-01 -0.755321D-02  0.124932D+00
     25 -0.645552D-01  0.222967D+00  0.525714D+00 -0.134432D+00 -0.838397D-01
     26 -0.185284D-01 -0.607584D-01 -0.830043D-02  0.415870D-01  0.928902D-03
     27 -0.175927D-01 -0.665266D-01 -0.236998D-01  0.425273D-02  0.276594D-01
     28  0.147812D-01 -0.911163D-01 -0.208531D+00 -0.149870D+00  0.272228D-01
     29  0.921838D-02 -0.568254D-01 -0.130052D+00  0.272228D-01 -0.176542D+00
     30 -0.165416D-02  0.101968D-01  0.272228D-01  0.167719D-01  0.316790D-01
     31 -0.348580D-01  0.424128D-01 -0.821982D-01  0.105164D+00  0.197234D+00
     32  0.241355D-01  0.114563D+00 -0.457292D-01  0.585056D-01  0.109727D+00
     33 -0.348668D-01  0.429793D-01 -0.147634D+00 -0.642025D-01 -0.177099D+00
     34  0.242099D-01  0.114817D+00 -0.817823D-01 -0.355653D-01 -0.981046D-01
     35 -0.769617D-03 -0.214410D-01 -0.253888D-01  0.111188D-01  0.150283D-01
     36 -0.441639D-02 -0.921971D-02  0.176623D-01 -0.773504D-02 -0.104548D-01
     37 -0.786432D-03 -0.216311D-01 -0.304479D-01 -0.125594D-02 -0.880079D-02
     38 -0.440652D-02 -0.908263D-02  0.213344D-01  0.880016D-03  0.616659D-02
     39  0.162075D+02 -0.124757D+01 -0.451940D-04 -0.218940D-02  0.299787D-02
     40 -0.124757D+01  0.932245D+00  0.194869D-05  0.944033D-04 -0.129263D-03
     41  0.451940D-04 -0.194869D-05  0.217833D+01  0.000000D+00  0.000000D+00
     42  0.218940D-02 -0.944033D-04  0.000000D+00  0.217833D+01  0.000000D+00
     43 -0.299787D-02  0.129263D-03  0.000000D+00  0.000000D+00  0.217833D+01
     44  0.899505D-01  0.306718D+00  0.000000D+00 -0.382426D-04  0.523643D-04
     45  0.000000D+00  0.158914D-05  0.376673D+00  0.000000D+00  0.000000D+00
     46  0.293703D-04  0.769849D-04  0.000000D+00  0.376673D+00  0.000000D+00
     47 -0.402157D-04 -0.105413D-03  0.000000D+00  0.000000D+00  0.376673D+00
     48 -0.524817D+00  0.520042D+00  0.124935D-04 -0.126094D-03  0.172656D-03
     49 -0.524817D+00  0.520041D+00 -0.260285D-05  0.605240D-03  0.172656D-03
     50 -0.524817D+00  0.520041D+00 -0.260285D-05 -0.126094D-03 -0.828735D-03
     51  0.000000D+00  0.000000D+00  0.633354D-03  0.130738D-04  0.000000D+00
     52  0.000000D+00  0.000000D+00 -0.867230D-03  0.000000D+00  0.130738D-04
     53  0.000000D+00  0.000000D+00  0.000000D+00 -0.867229D-03  0.633353D-03
     54 -0.919220D-04 -0.276637D-01 -0.218586D-01  0.392442D-02  0.244633D-02
     55 -0.350666D-01 -0.202473D-01  0.915049D-01 -0.164285D-01 -0.102409D-01
     56  0.491791D-01 -0.100500D+00 -0.311408D+00  0.601197D-01  0.374763D-01
     57 -0.882948D-02  0.180434D-01  0.601197D-01  0.126572D-01 -0.672839D-02
     58 -0.550395D-02  0.112476D-01  0.374763D-01 -0.672839D-02  0.192567D-01
     59  0.820230D-02  0.687768D-01  0.141542D+00 -0.254121D-01 -0.158409D-01
     60 -0.725653D-01 -0.272756D+00 -0.246495D+00  0.675229D-01  0.420911D-01
     61  0.130282D-01  0.489699D-01  0.675229D-01  0.117476D+00 -0.755692D-02
     62  0.812126D-02  0.305259D-01  0.420911D-01 -0.755692D-02  0.124888D+00
     63 -0.645876D-01  0.222847D+00  0.525498D+00 -0.134437D+00 -0.838026D-01
     64 -0.185185D-01 -0.607554D-01 -0.831349D-02  0.415828D-01  0.930417D-03
     65 -0.175803D-01 -0.665309D-01 -0.237318D-01  0.426074D-02  0.276467D-01
     66  0.148032D-01 -0.911286D-01 -0.208559D+00 -0.149704D+00  0.272268D-01
     67  0.922772D-02 -0.568060D-01 -0.130008D+00  0.272268D-01 -0.176409D+00
     68 -0.165672D-02  0.101988D-01  0.272268D-01  0.167544D-01  0.316721D-01
     69 -0.348612D-01  0.426107D-01 -0.824693D-01  0.105591D+00  0.197392D+00
     70  0.241615D-01  0.114652D+00 -0.458114D-01  0.586554D-01  0.109650D+00
     71 -0.348640D-01  0.427907D-01 -0.147445D+00 -0.638870D-01 -0.176839D+00
     72  0.241852D-01  0.114733D+00 -0.817937D-01 -0.354408D-01 -0.981000D-01
     73 -0.768386D-03 -0.214269D-01 -0.253719D-01  0.111090D-01  0.150347D-01
     74 -0.441711D-02 -0.922978D-02  0.176411D-01 -0.772408D-02 -0.104536D-01
     75 -0.787116D-03 -0.216388D-01 -0.304512D-01 -0.127270D-02 -0.881420D-02
     76 -0.440611D-02 -0.907708D-02  0.213429D-01  0.892019D-03  0.617776D-02
                6             7             8             9            10 
      6  0.253072D+00
      7  0.000000D+00  0.421786D+00
      8  0.000000D+00  0.000000D+00  0.421786D+00
      9  0.000000D+00  0.000000D+00  0.000000D+00  0.421786D+00
     10  0.226288D+00  0.000000D+00  0.000000D+00  0.000000D+00  0.173333D+01
     11  0.226288D+00  0.000000D+00  0.000000D+00  0.000000D+00 -0.133333D+00
     12  0.226288D+00  0.000000D+00  0.000000D+00  0.000000D+00 -0.133333D+00
     13  0.000000D+00  0.000000D+00  0.000000D+00  0.000000D+00  0.000000D+00
     14  0.000000D+00  0.000000D+00  0.000000D+00  0.000000D+00  0.000000D+00
     15  0.000000D+00  0.000000D+00  0.000000D+00  0.000000D+00  0.000000D+00
     16  0.977810D-02  0.532758D-01 -0.955989D-02 -0.596210D-02 -0.618893D-01
     17  0.601562D-01  0.230472D+00 -0.413563D-01 -0.257922D-01  0.190386D+00
     18 -0.866874D-01 -0.136299D+00  0.404260D-01  0.252120D-01 -0.517189D+00
     19  0.155553D-01  0.404260D-01  0.817348D-01 -0.452407D-02  0.121783D+00
     20  0.970119D-02  0.252120D-01 -0.452407D-02  0.861674D-01  0.759510D-01
     21  0.101556D+00  0.226423D+00 -0.406297D-01 -0.253390D-01  0.126451D+00
     22 -0.201975D+00 -0.124296D+00  0.595087D-01  0.371130D-01 -0.242444D+00
     23  0.362426D-01  0.595087D-01  0.196659D+00 -0.665961D-02  0.781641D-01
     24  0.226030D-01  0.371130D-01 -0.665961D-02  0.203184D+00  0.487477D-01
     25  0.105022D+00  0.193838D+00 -0.600586D-01 -0.374560D-01  0.657734D+00
     26  0.386225D-01  0.188020D+00 -0.846253D-02 -0.210413D-01 -0.260618D-02
     27  0.372726D-01  0.185038D+00 -0.332035D-01 -0.494401D-02 -0.348371D-01
     28 -0.213235D-01 -0.252147D-01 -0.113535D+00  0.527145D-02 -0.356300D+00
     29 -0.132986D-01 -0.157253D-01  0.527145D-02 -0.118700D+00 -0.222209D+00
     30  0.238632D-02  0.527145D-02  0.127057D-01  0.212997D-01  0.569773D-01
     31  0.946334D-01 -0.932163D-01  0.119260D+00  0.223672D+00 -0.307006D-01
     32  0.133729D+00 -0.713076D-01  0.912304D-01  0.171102D+00  0.763988D-01
     33  0.948768D-01 -0.166732D+00 -0.725080D-01 -0.200009D+00  0.893095D-01
     34  0.133915D+00 -0.127444D+00 -0.554225D-01 -0.152879D+00  0.931645D-01
     35 -0.120580D-01  0.264183D-01 -0.115696D-01 -0.156377D-01 -0.296319D-01
     36  0.149181D-01  0.796477D-01 -0.348809D-01 -0.471456D-01  0.320598D-02
     37 -0.119757D-01  0.320250D-01  0.132099D-02  0.925667D-02 -0.384096D-01
     38  0.151649D-01  0.954350D-01  0.393658D-02  0.275850D-01  0.113084D-01
     39  0.899505D-01  0.000000D+00 -0.293703D-04  0.402157D-04 -0.524817D+00
     40  0.306718D+00 -0.158914D-05 -0.769849D-04  0.105413D-03  0.520042D+00
     41  0.000000D+00  0.376673D+00  0.000000D+00  0.000000D+00 -0.124935D-04
     42  0.382426D-04  0.000000D+00  0.376673D+00  0.000000D+00  0.126094D-03
     43 -0.523643D-04  0.000000D+00  0.000000D+00  0.376673D+00 -0.172656D-03
     44  0.253072D+00  0.000000D+00 -0.428228D-04  0.586358D-04  0.226288D+00
     45  0.000000D+00  0.421786D+00  0.000000D+00  0.000000D+00  0.000000D+00
     46  0.428228D-04  0.000000D+00  0.421786D+00  0.000000D+00  0.673824D-04
     47 -0.586358D-04  0.000000D+00  0.000000D+00  0.421786D+00 -0.922644D-04
     48  0.226288D+00  0.000000D+00 -0.673824D-04  0.922644D-04  0.173333D+01
     49  0.226288D+00 -0.139092D-05 -0.239273D-04  0.922644D-04 -0.133333D+00
     50  0.226288D+00 -0.139092D-05 -0.673824D-04  0.327628D-04 -0.133333D+00
     51  0.000000D+00  0.376332D-04  0.000000D+00  0.000000D+00  0.000000D+00
[...]
  57        2PY        -0.92146  -0.44879  -0.41337   0.00782  -0.01281
  58        2PZ        -1.17812  -4.70494  -0.83131   0.00416  -0.00889
  59        3S          1.05336  13.30263   0.16374   0.00645  -0.00648
  60        3PX         0.37480   3.47529  -0.35488  -0.03295  -0.04694
  61        3PY         2.56993   0.22354   1.13750  -0.04091   0.02510
  62        3PZ         1.44765   6.98817   1.15487  -0.01090   0.01493
  63        4XX         0.47418   0.97019  -0.27020   0.00865   0.06265
  64        4YY         3.88259  -6.28309  -3.22878   0.00718  -0.06432
  65        4ZZ         1.52199   4.65086  -0.74416   0.00115   0.00012
  66        4XY         0.34465   4.78372   0.32058   0.05799  -0.05750
  67        4XZ         0.95744  12.66839   1.16165   0.05795  -0.05526
  68        4YZ         2.19694   6.85619  -0.75965   0.01577  -0.00807
  69 9   H  1S         -0.01569   0.20483   0.37560  -0.11472   2.43538
  70        2S         -0.30288   0.33963   0.59677  -0.08691   0.49667
  71 10  H  1S         -0.31507   0.00131   0.06637   0.02528  -1.89816
  72        2S         -0.97808  -0.09700   0.23743  -0.04048  -0.51295
  73 11  H  1S       -310.38524  -4.98984  50.58687  -0.00815   0.17136
  74        2S        -31.03527   1.65023   9.24024  -0.09639   0.13672
  75 12  H  1S          2.43751********** -44.00733   0.00140  -0.14212
  76        2S          8.76583 -58.46451 -18.52225   0.07734  -0.17928
                          41        42        43        44        45
  41        2PX         1.03461
  42        2PY         0.00000   0.70087
  43        2PZ         0.00000   0.00000   0.78457
  44        3S          0.00000   0.00000   0.00000   0.85022
  45        3PX        -0.11853   0.00000   0.00000   0.00000   1.44918
  46        3PY         0.00000  -0.10456   0.00000   0.00000   0.00000
  47        3PZ         0.00000   0.00000  -0.40847   0.00000   0.00000
  48        4XX         0.00000   0.00000   0.00000  -0.16189   0.00000
  49        4YY         0.00000   0.00000   0.00000  -0.17717   0.00000
  50        4ZZ         0.00000   0.00000   0.00000  -0.20785   0.00000
  51        4XY         0.00000   0.00000   0.00000   0.00000   0.00000
  52        4XZ         0.00000   0.00000   0.00000   0.00000   0.00000
  53        4YZ         0.00000   0.00000   0.00000   0.00000   0.00000
  54 8   N  1S          0.06651   0.00422   0.00069   0.08492   0.80530
  55        2S         -0.10279  -0.00708  -0.00076  -0.30251  -1.14155
  56        2PX        -0.14005  -0.00932  -0.00006  -0.01408  -0.10650
  57        2PY        -0.01757   0.00578  -0.00019  -0.00382  -0.06109
  58        2PZ        -0.00631  -0.00052   0.00024   0.00006  -0.02041
  59        3S         -0.06621  -0.00387   0.00033  -0.73842  -0.77692
  60        3PX        -0.04147   0.00065  -0.00136  -0.10842   0.01655
  61        3PY         0.01312  -0.02089   0.00061   0.01006   0.14327
  62        3PZ        -0.00083   0.00003   0.00326  -0.00887   0.00621
  63        4XX        -0.10715  -0.00889  -0.00198   0.08243  -0.03464
  64        4YY        -0.02148   0.00100  -0.00358   0.13573  -0.19570
  65        4ZZ        -0.03451  -0.00191  -0.00046   0.01351  -0.27555
  66        4XY        -0.03302   0.02979  -0.00478   0.00260  -0.01924
  67        4XZ        -0.03996  -0.00323   0.03981  -0.00039  -0.02318
  68        4YZ        -0.02391   0.01035   0.00198  -0.00411  -0.03361
  69 9   H  1S         -0.59466  -0.88220  -2.05987   1.94404   0.99481
  70        2S         -0.08338   0.00860   0.09550   0.48395   0.02190
  71 10  H  1S          1.56380   0.69030   3.05787  -0.91100  -1.65370
  72        2S          0.12670   0.04624   0.21708  -0.21062  -0.56258
  73 11  H  1S          0.30350   0.04569   0.01753   1.00535  11.98314
  74        2S          0.07757   0.01529   0.01357   0.15283   1.41971
  75 12  H  1S          0.13282  -0.00149   0.03108   1.23878   5.42157
  76        2S         -0.02690   0.00066   0.01407   0.18180  -0.37037
                          46        47        48        49        50
  46        3PY         0.20228
  47        3PZ         0.00000   1.55089
  48        4XX         0.00000   0.00000   0.75349
  49        4YY         0.00000   0.00000   0.03105   1.54864
  50        4ZZ         0.00000   0.00000   0.22568  -0.17364   1.48894
  51        4XY         0.00000   0.00000   0.00000   0.00000   0.00000
  52        4XZ         0.00000   0.00000   0.00000   0.00000   0.00000
  53        4YZ         0.00000   0.00000   0.00000   0.00000   0.00000
  54 8   N  1S          0.05718  -0.03053   0.20588  -0.00372   0.00461
  55        2S         -0.07375   0.03474  -0.24205   0.01987  -0.04138
  56        2PX        -0.01641   0.01274  -0.22212   0.04228  -0.05868
  57        2PY         0.09845   0.00303  -0.07548  -0.00215  -0.00796
  58        2PZ        -0.00208  -0.03862  -0.04429   0.00237   0.00465
  59        3S         -0.03316  -0.00237   0.09429   0.02660   0.01735
  60        3PX         0.01025  -0.01042   0.03885  -0.07608   0.15269
  61        3PY        -0.28316  -0.00772   0.08336  -0.00573   0.04139
  62        3PZ         0.00114   0.16195   0.02173   0.00104   0.00228
  63        4XX         0.00148   0.00937  -0.12163   0.02111  -0.05374
  64        4YY        -0.01918   0.02130  -0.19522   0.00522  -0.01385
  65        4ZZ        -0.01312   0.00704  -0.05161   0.01060  -0.03877
  66        4XY         0.11569   0.00301  -0.20769  -0.00161  -0.02025
  67        4XZ        -0.00670  -0.11293  -0.21141   0.01634   0.02931
  68        4YZ         0.04194  -0.06341  -0.08541  -0.00574   0.01277
  69 9   H  1S          0.18790   0.03959  -0.17104   1.19422  -4.90691
  70        2S         -0.12055  -0.89739   0.23833  -0.54126   0.24507
  71 10  H  1S         -0.42133  -9.58446  -1.25619   3.53643  -5.07811
  72        2S         -0.01183  -1.24468  -0.07446   0.81379  -0.38013
  73 11  H  1S          2.11254  -2.40375   0.66539  -0.08160   0.23237
  74        2S          0.26618  -0.31274   0.31637  -0.06377   0.16320
  75 12  H  1S         -0.01134   0.32784  -0.18213  -0.01951   0.04096
  76        2S          0.01755  -0.09325  -0.30656  -0.00294  -0.04423
                          51        52        53        54        55
  51        4XY         3.05771
  52        4XZ         0.00000   5.42225
  53        4YZ         0.00000   0.00000   0.24098
  54 8   N  1S         -0.25453   0.22284  -0.00339 108.68885
  55        2S          0.34309  -0.28485   0.00415  -5.96592   7.52025
  56        2PX         0.25066  -0.20565   0.00337   0.00000   0.00000
  57        2PY        -0.38888  -0.06406  -0.00566   0.00000   0.00000
  58        2PZ         0.02572   0.43108  -0.00831   0.00000   0.00000
  59        3S          0.04908  -0.02752   0.00052  -0.92374   2.04500
  60        3PX        -0.02417   0.01860   0.00025   0.00000   0.00000
  61        3PY         0.53005   0.03099   0.00562   0.00000   0.00000
  62        3PZ        -0.00461  -0.22907   0.00165   0.00000   0.00000
  63        4XX         0.05586  -0.04622   0.00037  -0.11426   0.12203
  64        4YY        -0.06963  -0.10800  -0.00167  -0.85867   2.13303
  65        4ZZ         0.06087   0.04189  -0.00033  -0.37894   1.06127
  66        4XY        -0.93044  -0.16671  -0.02709   0.00000   0.00000
  67        4XZ         0.17140   2.87598  -0.07951   0.00000   0.00000
  68        4YZ        -0.54685   1.32647   0.10930   0.00000   0.00000
  69 9   H  1S          0.48867  -0.44620  -0.96222  -0.00032  -0.00239
  70        2S          0.00294  -0.00230  -0.05002   0.09508  -0.17513
  71 10  H  1S          1.25562  -5.72990   0.75913   0.00056  -0.02415
  72        2S          0.06560  -0.25979   0.01907   0.13328  -0.24911
  73 11  H  1S         -1.62709   3.12165  -0.11831  30.65899 -57.81461
  74        2S         -0.28390   0.56648  -0.02239   4.69935  -6.07881
  75 12  H  1S          0.04613  -0.16487   0.00196   1.31967  -6.54198
  76        2S         -0.01703   0.22740   0.00125  -2.84190   3.19585
                          56        57        58        59        60
  56        2PX         2.55452
  57        2PY         0.00000   3.76991
  58        2PZ         0.00000   0.00000   2.72323
  59        3S          0.00000   0.00000   0.00000   2.72553
  60        3PX        -0.42185   0.00000   0.00000   0.00000   0.48910
  61        3PY         0.00000  -1.87412   0.00000   0.00000   0.00000
  62        3PZ         0.00000   0.00000  -0.75098   0.00000   0.00000
  63        4XX         0.00000   0.00000   0.00000  -0.30474   0.00000
  64        4YY         0.00000   0.00000   0.00000  -0.53502   0.00000
  65        4ZZ         0.00000   0.00000   0.00000   0.05524   0.00000
  66        4XY         0.00000   0.00000   0.00000   0.00000   0.00000
  67        4XZ         0.00000   0.00000   0.00000   0.00000   0.00000
  68        4YZ         0.00000   0.00000   0.00000   0.00000   0.00000
  69 9   H  1S          0.03111  -0.00044   0.00532  -0.20911  -0.70803
  70        2S         -0.05585  -0.03519  -0.03962  -0.18637   0.00389
  71 10  H  1S          0.02062   0.00137   0.00251  -0.03393  -0.14849
  72        2S         -0.08600   0.00510   0.02995  -0.11002   0.19115
  73 11  H  1S         13.62226  24.93274  30.85712 -16.39757  -7.06258
  74        2S          0.50683   0.99643   1.30781  -1.52579  -0.40963
  75 12  H  1S          4.14064   0.44424   4.64257 -13.45783  -3.35128
  76        2S         -0.44312   0.42635   0.89963  -0.65407   0.26970
                          61        62        63        64        65
  61        3PY         3.67533
  62        3PZ         0.00000   0.97715
  63        4XX         0.00000   0.00000   0.38642
  64        4YY         0.00000   0.00000   0.18236   4.31292
  65        4ZZ         0.00000   0.00000   0.14003   0.33894   0.84562
  66        4XY         0.00000   0.00000   0.00000   0.00000   0.00000
  67        4XZ         0.00000   0.00000   0.00000   0.00000   0.00000
  68        4YZ         0.00000   0.00000   0.00000   0.00000   0.00000
  69 9   H  1S         -0.17037  -0.17473   0.04771  -0.00895   0.03502
  70        2S          0.12207  -0.01137  -0.00452  -0.10410  -0.03431
  71 10  H  1S         -0.02974  -0.24228   0.04326  -0.00933   0.00882
  72        2S         -0.02656  -0.10028  -0.02189  -0.12942  -0.05779
  73 11  H  1S        -44.01847 -22.39964  -3.92384 -33.63581 -24.27238
  74        2S         -2.81954  -1.61962  -0.47550  -4.12002  -1.63782
  75 12  H  1S         -0.23190  -6.92471  -0.86313   6.22006  -4.47298
  76        2S         -1.16829  -1.34831   0.28362   3.49145   0.67838
                          66        67        68        69        70
  66        4XY         8.79287
  67        4XZ         0.00000  22.67685
  68        4YZ         0.00000   0.00000  71.47052
  69 9   H  1S         -0.06086  -0.07400   0.06871 278.60203
  70        2S         -0.06772  -0.17915  -0.11211   8.70594   4.41273
  71 10  H  1S          0.00742   0.02777  -0.00277   0.97004  -4.37546
  72        2S          0.00877   0.12708  -0.00991  -0.10869  -1.26482
  73 11  H  1S        -26.06204 -73.88215-181.28865  -0.00180   0.64903
  74        2S         -0.37084  -1.03558  -2.41224  -0.01519   0.31074
  75 12  H  1S         -4.69910 -12.40155  -6.75883  -0.19997  -0.32162
  76        2S         -0.33895  -1.20806   0.74757  -0.45803  -0.55308
                          71        72        73        74        75
  71 10  H  1S        555.48423
  72        2S         36.37731   6.64772
  73 11  H  1S          0.08475   4.138077974.04562
  74        2S          0.39933   1.12724 339.70536  33.95470
  75 12  H  1S         -0.00133   0.09389   4.89339  -1.601441268.86864
  76        2S         -0.10528  -0.24899 -50.37495  -9.38479  57.51014
                          76
  76        2S         20.17210
     Gross orbital populations:
                           1
   1 1   C  1S          1.01875
   2        2S          1.86753
   3        2PX         1.14363
   4        2PY         1.10211
   5        2PZ         1.07164
   6        3S          0.15876
   7        3PX         0.60027
   8        3PY         0.02202
   9        3PZ         0.05844
  10        4XX        -0.43314
  11        4YY        -0.13604
  12        4ZZ        -0.49519
  13        4XY        -0.22696
  14        4XZ         0.40513
  15        4YZ         0.13785
  16 2   N  1S         -0.55687
  17        2S          0.46942
  18        2PX         0.68276
  19        2PY         0.04031
  20        2PZ         0.45146
  21        3S          0.25925
  22        3PX        -0.00918
  23        3PY         0.13951
  24        3PZ         0.28700
  25        4XX        -0.36946
  26        4YY        -0.35404
  27        4ZZ        -0.33977
  28        4XY        -0.33716
  29        4XZ        -0.98076
  30        4YZ        -1.04436
  31 3   H  1S         -4.44353
  32        2S         -0.10268
  33 4   H  1S         15.06194
  34        2S          1.27812
  35 5   H  1S         27.82048
  36        2S          0.70661
  37 6   H  1S         14.11774
  38        2S          0.02286
  39 7   C  1S          1.02387
  40        2S          1.85966
  41        2PX         1.13272
  42        2PY         1.10009
  43        2PZ         1.04220
  44        3S          0.15876
  45        3PX         0.63078
  46        3PY        -0.02787
  47        3PZ         0.66991
  48        4XX        -0.37019
  49        4YY        -0.58238
  50        4ZZ        -0.01409
  51        4XY         0.27978
  52        4XZ        -0.14773
  53        4YZ        -0.09933
  54 8   N  1S          2.60915
  55        2S          1.79084
  56        2PX         1.53237
  57        2PY         2.12027
  58        2PZ         1.69293
  59        3S          0.25927
  60        3PX         0.17970
  61        3PY        -0.07849
  62        3PZ         0.12733
  63        4XX        -0.13073
  64        4YY        -0.05636
  65        4ZZ         0.09375
  66        4XY         0.37996
  67        4XZ         1.21999
  68        4YZ         1.08224
  69 9   H  1S          6.41542
  70        2S          0.04955
  71 10  H  1S        -13.08848
  72        2S         -1.31425
  73 11  H  1S        -25.84526
  74        2S         -0.67344
  75 12  H  1S        -12.12092
  76        2S          0.00459
          Condensed to atoms (all electrons):
               1          2          3          4          5          6
     1  C   16.716195   0.448015  -6.160702 -14.960723   1.705407  -6.089506
     2  N    0.448015 216.972375   1.406746   0.523628-388.146842 -23.854168
     3  H   -6.160702   1.406746 287.785062  -2.376807   0.716964  -1.628310
     4  H  -14.960723   0.523628  -2.376807 654.363002   5.394614  -0.375512
     5  H    1.705407-388.146842   0.716964   5.3946148736.460236 -57.103437
     6  H   -6.089506 -23.854168  -1.628310  -0.375512 -57.1034371421.837464
     7  C   -7.249371  -2.174884   2.427263  17.289079 -17.487744  -5.987534
     8  N   -2.928007-213.636174   1.904738   0.694356 406.971801  40.763879
     9  H    5.732343  -1.276093-292.654084   4.110301  -0.974363   1.516821
    10  H   14.249724  -0.473212   3.026786-643.167845  -5.514148   0.208115
    11  H   -1.530320 385.683774  -0.668778  -5.599838***********  56.487498
    12  H    6.361739  22.864941   1.674907   0.445808  57.117842***********
               7          8          9         10         11         12
     1  C   -7.249371  -2.928007   5.732343  14.249724  -1.530320   6.361739
     2  N   -2.174884-213.636174  -1.276093  -0.473212 385.683774  22.864941
     3  H    2.427263   1.904738-292.654084   3.026786  -0.668778   1.674907
     4  H   17.289079   0.694356   4.110301-643.167845  -5.599838   0.445808
     5  H  -17.487744 406.971801  -0.974363  -5.514148***********  57.117842
     6  H   -5.987534  40.763879   1.516821   0.208115  56.487498***********
     7  C   17.715212  -1.149273  -3.042051 -17.653462  17.768362   6.200566
     8  N   -1.149273 229.508429  -2.005713  -0.674009-405.681590 -40.946243
     9  H   -3.042051  -2.005713 300.426644  -4.778923   0.942785  -1.532698
    10  H  -17.653462  -0.674009  -4.778923 634.886570   5.749385  -0.261710
    11  H   17.768362-405.681590   0.942785   5.7493858687.411042 -56.467784
    12  H    6.200566 -40.946243  -1.532698  -0.261710 -56.4677841404.061012
 Mulliken charges:
               1
     1  C   -0.294794
     2  N    8.661893
     3  H    5.546215
     4  H  -15.340063
     5  H  -27.527090
     6  H  -13.140597
     7  C   -0.656164
     8  N   -5.822194
     9  H   -5.464968
    10  H   15.402728
    11  H   27.518702
    12  H   13.116332
 Sum of Mulliken charges =   2.00000
 Mulliken charges with hydrogens summed into heavy atoms:
               1
     1  C   -0.232128
     2  N    8.661893
     7  C   -0.574917
     8  N   -5.854848
 N-N= 2.282867620516D+05 E-N=-9.716263636841D+02  KE= 1.716602071986D+02
 Orbital energies and kinetic energies (alpha):
                                 1                 2
   1         O               -51.210799         27.284589
   2         O               -36.903066         20.736673
   3         O                -4.270472          3.863336
   4         O                -3.617085          4.223587
   5         O                -3.411500          3.957322
   6         O                -3.165877          3.701664
   7         O                -3.130094          3.634145
   8         O                -2.530089          3.266876
   9         O                -2.424871          2.729432
  10         O                -2.195922          2.642549
  11         O                -1.171673          1.834811
  12         O                -1.150529          1.826943
  13         O                -1.129338          1.883458
  14         O                -1.115784          1.936651
  15         O                -0.169597          1.303581
  16         O                -0.157421          1.004487
  17         V                -0.147846          0.775639
  18         V                -0.040302          1.044846
  19         V                -0.025669          1.158563
  20         V                -0.008874          0.874744
  21         V                 0.136214          0.715203
  22         V                 0.145124          0.718122
  23         V                 0.150048          0.904798
  24         V                 0.195539          1.079054
  25         V                 0.270044          2.567412
  26         V                 0.371054          2.577793
  27         V                 0.448537          2.191249
  28         V                 0.535672          1.973355
  29         V                 0.613302          3.372133
  30         V                 0.632033          3.049354
  31         V                 0.724654          3.090184
  32         V                 0.753824          2.927705
  33         V                 1.013535          3.723437
  34         V                 1.097509          3.511888
  35         V                 1.201860          3.545614
  36         V                 1.231095          4.080652
  37         V                 1.240664          3.537956
  38         V                 1.359077          4.270779
  39         V                 2.856693          5.218737
  40         V                 3.095770          5.547388
  41         V                 3.327098          5.980321
  42         V                 4.068171          7.275349
 Total kinetic energy from orbitals= 1.716602071986D+02

 This type of calculation cannot be archived.


      SCIENCE SANS CONSCIENCE N'EST QUE RUINE DE L'AME.

                                                  -- RABELAIS
 Job cpu time:       0 days  0 hours  0 minutes  1.6 seconds.
 File lengths (MBytes):  RWF=      5 Int=      0 D2E=      0 Chk=      1 Scr=      1
 Normal termination of Gaussian 09 at Wed Apr 30 11:40:45 2014.
