 Entering Gaussian System, Link 0=g09
 Input=gaussian.gjf
 Output=gaussian.log
 Initial command:
 /opt//g09/l1.exe /tmp/Gau-28488.inp -scrdir=/tmp/
 Entering Link 1 = /opt//g09/l1.exe PID=     28490.
  
 Copyright (c) 1988,1990,1992,1993,1995,1998,2003,2009, Gaussian, Inc.
                  All Rights Reserved.
  
 This is part of the Gaussian(R) 09 program.  It is based on
 the Gaussian(R) 03 system (copyright 2003, Gaussian, Inc.),
 the Gaussian(R) 98 system (copyright 1998, Gaussian, Inc.),
 the Gaussian(R) 94 system (copyright 1995, Gaussian, Inc.),
 the Gaussian 92(TM) system (copyright 1992, Gaussian, Inc.),
 the Gaussian 90(TM) system (copyright 1990, Gaussian, Inc.),
 the Gaussian 88(TM) system (copyright 1988, Gaussian, Inc.),
 the Gaussian 86(TM) system (copyright 1986, Carnegie Mellon
 University), and the Gaussian 82(TM) system (copyright 1983,
 Carnegie Mellon University). Gaussian is a federally registered
 trademark of Gaussian, Inc.
  
 This software contains proprietary and confidential information,
 including trade secrets, belonging to Gaussian, Inc.
  
 This software is provided under written license and may be
 used, copied, transmitted, or stored only in accord with that
 written license.
  
 The following legend is applicable only to US Government
 contracts under FAR:
  
                    RESTRICTED RIGHTS LEGEND
  
 Use, reproduction and disclosure by the US Government is
 subject to restrictions as set forth in subparagraphs (a)
 and (c) of the Commercial Computer Software - Restricted
 Rights clause in FAR 52.227-19.
  
 Gaussian, Inc.
 340 Quinnipiac St., Bldg. 40, Wallingford CT 06492
  
  
 ---------------------------------------------------------------
 Warning -- This program may not be used in any manner that
 competes with the business of Gaussian, Inc. or will provide
 assistance to any competitor of Gaussian, Inc.  The licensee
 of this program is prohibited from giving any competitor of
 Gaussian, Inc. access to this program.  By using this program,
 the user acknowledges that Gaussian, Inc. is engaged in the
 business of creating and licensing software in the field of
 computational chemistry and represents and warrants to the
 licensee that it is not a competitor of Gaussian, Inc. and that
 it will not use this program in any manner prohibited above.
 ---------------------------------------------------------------
  

 Cite this work as:
 Gaussian 09, Revision A.01,
 M. J. Frisch, G. W. Trucks, H. B. Schlegel, G. E. Scuseria, 
 M. A. Robb, J. R. Cheeseman, G. Scalmani, V. Barone, B. Mennucci, 
 G. A. Petersson, H. Nakatsuji, M. Caricato, X. Li, H. P. Hratchian, 
 A. F. Izmaylov, J. Bloino, G. Zheng, J. L. Sonnenberg, M. Hada, 
 M. Ehara, K. Toyota, R. Fukuda, J. Hasegawa, M. Ishida, T. Nakajima, 
 Y. Honda, O. Kitao, H. Nakai, T. Vreven, J. A. Montgomery, Jr., 
 J. E. Peralta, F. Ogliaro, M. Bearpark, J. J. Heyd, E. Brothers, 
 K. N. Kudin, V. N. Staroverov, R. Kobayashi, J. Normand, 
 K. Raghavachari, A. Rendell, J. C. Burant, S. S. Iyengar, J. Tomasi, 
 M. Cossi, N. Rega, J. M. Millam, M. Klene, J. E. Knox, J. B. Cross, 
 V. Bakken, C. Adamo, J. Jaramillo, R. Gomperts, R. E. Stratmann, 
 O. Yazyev, A. J. Austin, R. Cammi, C. Pomelli, J. W. Ochterski, 
 R. L. Martin, K. Morokuma, V. G. Zakrzewski, G. A. Voth, 
 P. Salvador, J. J. Dannenberg, S. Dapprich, A. D. Daniels, 
 O. Farkas, J. B. Foresman, J. V. Ortiz, J. Cioslowski, 
 and D. J. Fox, Gaussian, Inc., Wallingford CT, 2009.
 
 ******************************************
 Gaussian 09:  EM64L-G09RevA.01  8-May-2009
                 6-Jan-2014 
 ******************************************
 %chk=gaussian.chk
 %mem=1GB
 %nproc=2
 Will use up to    2 processors via shared memory.
 ----------------------------------------------------------------------
 # force td(singlet, root=1, nstates=2) cam-b3lyp/6-31g* scf=(tight,max
 cycle=10000) iop(9/40=20) nosymm pop=full
 ----------------------------------------------------------------------
 1/10=7,30=1,38=1/1,3;
 2/12=2,15=1,17=6,18=5,40=1/2;
 3/5=1,6=6,7=1,11=2,16=1,25=1,30=1,71=1,74=-40/1,2,8,3;
 4//1;
 5/5=2,7=10000,32=2,38=5/2;
 8/6=1,10=2,107=1,108=2/1;
 9/8=1,15=2,40=20,41=2,42=1,48=1/14;
 10/5=4,31=1/2;
 6/7=3,18=1/1;
 7/12=6,13=5,14=1,29=1,30=1/1,2,3,16;
 1/10=7,30=1/3;
 99//99;
 -------
 [0] [0]
 -------
 Symbolic Z-matrix:
 Charge =  1 Multiplicity = 1
 c                    -0.96917   0.14114   0.08831 
 n                     0.30973  -0.04416  -0.03718 
 h                    -11.45593   0.80366   0.37976 
 h                    -11.2363   2.08119   1.22747 
 h                     0.46771  -1.10078  -0.03571 
 h                     0.73863   0.93513  -0.15033 
 

 GradGradGradGradGradGradGradGradGradGradGradGradGradGradGradGradGradGrad
 Berny optimization.
 Initialization pass.
 Trust Radius=3.00D-01 FncErr=1.00D-07 GrdErr=1.00D-07
 Number of steps in this run=   2 maximum allowed number of steps=   2.
 GradGradGradGradGradGradGradGradGradGradGradGradGradGradGradGradGradGrad

                          Input orientation:                          
 ---------------------------------------------------------------------
 Center     Atomic      Atomic             Coordinates (Angstroms)
 Number     Number       Type             X           Y           Z
 ---------------------------------------------------------------------
      1          6           0       -0.969169    0.141140    0.088309
      2          7           0        0.309727   -0.044161   -0.037180
      3          1           0      -11.455927    0.803663    0.379760
      4          1           0      -11.236297    2.081185    1.227474
      5          1           0        0.467706   -1.100778   -0.035706
      6          1           0        0.738634    0.935134   -0.150335
 ---------------------------------------------------------------------
                    Distance matrix (angstroms):
                    1          2          3          4          5
     1  C    0.000000
     2  N    1.298330   0.000000
     3  H   10.511706  11.803527   0.000000
     4  H   10.510727  11.807926   1.548844   0.000000
     5  H    1.903247   1.068362  12.081909  12.194433   0.000000
     6  H    1.898412   1.075074  12.206785  12.108294   2.057056
                    6
     6  H    0.000000
 Symmetry turned off by external request.
 Stoichiometry    CH4N(1+)
 Framework group  C1[X(CH4N)]
 Deg. of freedom    12
 Full point group                 C1      NOp   1
 Rotational constants (GHZ):    150.5749109      2.0173391      1.9955184
 Standard basis: 6-31G(d) (6D, 7F)
 Integral buffers will be    131072 words long.
 Raffenetti 2 integral format.
 Two-electron integral symmetry is turned off.
    38 basis functions,    72 primitive gaussians,    38 cartesian basis functions
     8 alpha electrons        8 beta electrons
       nuclear repulsion energy        29.3768101226 Hartrees.
 NAtoms=    6 NActive=    6 NUniq=    6 SFac= 7.50D-01 NAtFMM=   80 NAOKFM=F Big=F
 One-electron integrals computed using PRISM.
 NBasis=    38 RedAO= T  NBF=    38
 NBsUse=    38 1.00D-06 NBFU=    38
 Harris functional with IExCor=20419 diagonalized for initial guess.
 ExpMin= 1.61D-01 ExpMax= 4.17D+03 ExpMxC= 6.27D+02 IAcc=1 IRadAn=         1 AccDes= 0.00D+00
 HarFok:  IExCor=20419 AccDes= 0.00D+00 IRadAn=         1 IDoV= 1
 ScaDFX=  1.000000  1.000000  1.000000  1.000000
 FoFCou: FMM=F IPFlag=           0 FMFlag=      100000 FMFlg1=           0
         NFxFlg=           0 DoJE=T BraDBF=F KetDBF=T FulRan=T
         Omega=  0.000000  0.000000  1.000000  0.000000  0.000000 ICntrl=     500 IOpCl=  0
         NMat0=    1 NMatS0=    1 NMatT0=    0 NMatD0=    1 NMtDS0=    0 NMtDT0=    0
         I1Cent=           4 NGrid=           0.
 Symmetry not used in FoFCou.
 Requested convergence on RMS density matrix=1.00D-08 within**** cycles.
 Requested convergence on MAX density matrix=1.00D-06.
 Requested convergence on             energy=1.00D-06.
 No special actions if energy rises.
 Integral accuracy reduced to 1.0D-05 until final iterations.
 FoFJK:  IHMeth= 1 ICntrl=     0 DoSepK=T KAlg= 1 I1Cent= 0 FoldK=F
 FoFJK:  IHMeth= 1 ICntrl=     0 DoSepK=T KAlg= 1 I1Cent= 0 FoldK=F
 FoFJK:  IHMeth= 1 ICntrl=     0 DoSepK=T KAlg= 1 I1Cent= 0 FoldK=F
 FoFJK:  IHMeth= 1 ICntrl=     0 DoSepK=T KAlg= 1 I1Cent= 0 FoldK=F
 FoFJK:  IHMeth= 1 ICntrl=     0 DoSepK=T KAlg= 1 I1Cent= 0 FoldK=F
 FoFJK:  IHMeth= 1 ICntrl=     0 DoSepK=T KAlg= 1 I1Cent= 0 FoldK=F
 Initial convergence to 1.0D-05 achieved.  Increase integral accuracy.
 FoFJK:  IHMeth= 1 ICntrl=     0 DoSepK=T KAlg= 1 I1Cent= 0 FoldK=F
 FoFJK:  IHMeth= 1 ICntrl=     0 DoSepK=T KAlg= 1 I1Cent= 0 FoldK=F
 FoFJK:  IHMeth= 1 ICntrl=     0 DoSepK=T KAlg= 1 I1Cent= 0 FoldK=F
 FoFJK:  IHMeth= 1 ICntrl=     0 DoSepK=T KAlg= 1 I1Cent= 0 FoldK=F
 FoFJK:  IHMeth= 1 ICntrl=     0 DoSepK=T KAlg= 1 I1Cent= 0 FoldK=F
 FoFJK:  IHMeth= 1 ICntrl=     0 DoSepK=T KAlg= 1 I1Cent= 0 FoldK=F
 SCF Done:  E(RCAM-B3LYP) =  -94.5932386091     A.U. after   12 cycles
             Convg  =    0.5187D-08             -V/T =  2.0141
 ExpMin= 1.61D-01 ExpMax= 4.17D+03 ExpMxC= 6.27D+02 IAcc=1 IRadAn=         1 AccDes= 0.00D+00
 HarFok:  IExCor=  205 AccDes= 0.00D+00 IRadAn=         1 IDoV=-2
 ScaDFX=  1.000000  1.000000  1.000000  1.000000
 Range of M.O.s used for correlation:     3    38
 NBasis=    38 NAE=     8 NBE=     8 NFC=     2 NFV=     0
 NROrb=     36 NOA=     6 NOB=     6 NVA=    30 NVB=    30

 **** Warning!!: The smallest alpha delta epsilon is  0.71194016D-01

     8 initial guesses have been made.
 Convergence on wavefunction:    0.000001000000000
 Iteration     1 Dimension     8 NMult     8
 CISAX will form     8 AO SS matrices at one time.
 FoFJK:  IHMeth= 1 ICntrl=     0 DoSepK=T KAlg= 1 I1Cent= 0 FoldK=F
 FoFJK:  IHMeth= 1 ICntrl=     0 DoSepK=T KAlg= 1 I1Cent= 0 FoldK=F
 Iteration     2 Dimension    12 NMult    12
 FoFJK:  IHMeth= 1 ICntrl=     0 DoSepK=T KAlg= 1 I1Cent= 0 FoldK=F
 FoFJK:  IHMeth= 1 ICntrl=     0 DoSepK=T KAlg= 1 I1Cent= 0 FoldK=F
 Iteration     3 Dimension    16 NMult    16
 FoFJK:  IHMeth= 1 ICntrl=     0 DoSepK=T KAlg= 1 I1Cent= 0 FoldK=F
 FoFJK:  IHMeth= 1 ICntrl=     0 DoSepK=T KAlg= 1 I1Cent= 0 FoldK=F
 Iteration     4 Dimension    19 NMult    19
 FoFJK:  IHMeth= 1 ICntrl=     0 DoSepK=T KAlg= 1 I1Cent= 0 FoldK=F
 FoFJK:  IHMeth= 1 ICntrl=     0 DoSepK=T KAlg= 1 I1Cent= 0 FoldK=F
 ***********************************************************************
 Excited states from <AA,BB:AA,BB> singles matrix:
 ***********************************************************************
 
 Ground to excited state transition electric dipole moments (Au):
       state          X           Y           Z        Dip. S.      Osc.
         1         0.0000      0.0000      0.0000      0.0000      0.0000
         2         0.0000      0.0000      0.0000      0.0000      0.0000
 Ground to excited state transition velocity dipole moments (Au):
       state          X           Y           Z        Dip. S.      Osc.
         1         0.0000      0.0000      0.0000      0.0000      0.0000
         2         0.0000      0.0000      0.0000      0.0000      0.0000
 Ground to excited state transition magnetic dipole moments (Au):
       state          X           Y           Z
         1         0.0000      0.0000      0.0000
         2         0.0000      0.0000      0.0000
 <0|del|b> * <b|rxdel|0> + <0|del|b> * <b|delr+rdel|0>
 Rotatory Strengths (R) in cgs (10**-40 erg-esu-cm/Gauss)
       state          XX          YY          ZZ    R(velocity)
         1         0.0000      0.0000      0.0000      0.0000
 Total R(velocity) tensor for State=          1
                 1             2             3 
      1   0.000000D+00  0.000000D+00  0.000000D+00
      2   0.000000D+00  0.000000D+00  0.000000D+00
      3   0.000000D+00  0.000000D+00  0.000000D+00
         2         0.0000      0.0000      0.0000      0.0000
 Total R(velocity) tensor for State=          2
                 1             2             3 
      1   0.000000D+00  0.000000D+00  0.000000D+00
      2   0.000000D+00  0.000000D+00  0.000000D+00
      3   0.000000D+00  0.000000D+00  0.000000D+00
 1/2[<0|r|b>*<b|rxdel|0> + (<0|rxdel|b>*<b|r|0>)*]
 Rotatory Strengths (R) in cgs (10**-40 erg-esu-cm/Gauss)
       state          XX          YY          ZZ     R(length)     R(au)
         1         0.0000      0.0000      0.0000      0.0000      0.0000
         2         0.0000      0.0000      0.0000      0.0000      0.0000
  1/2[<0|del|b>*<b|r|0> + (<0|r|b>*<b|del|0>)*] (Au)
       state          X           Y           Z        Dip. S.   Osc.(frdel)
         1         0.0000      0.0000      0.0000      0.0000      0.0000
         2         0.0000      0.0000      0.0000      0.0000      0.0000
 Ground to excited state transition densities written to RWF  633

 Excitation energies and oscillator strengths:
 
 Excited state symmetry could not be determined.
 Excited State   1:      Singlet-?Sym    1.0582 eV 1171.63 nm  f=0.0000  <S**2>=0.000
       3 -> 13         0.00000
       3 -> 23         0.00000
       4 -> 13         0.00000
       4 -> 23         0.00000
       4 -> 25         0.00000
       5 -> 13         0.00000
       5 -> 23         0.00000
       5 -> 25         0.00000
       6 ->  9         0.00000
       6 -> 13         0.00000
       6 -> 23         0.00000
       6 -> 25         0.00000
       7 ->  9         0.00000
       7 -> 10         0.00000
       7 -> 13         0.00000
       7 -> 23         0.00000
       8 ->  9         0.70710
       8 -> 10         0.00000
       8 -> 11        -0.00006
       8 -> 12        -0.00212
       8 -> 13         0.00000
       8 -> 14         0.00000
       8 -> 15         0.00000
       8 -> 16         0.00000
       8 -> 17         0.00008
       8 -> 18        -0.00001
       8 -> 19         0.00001
       8 -> 20         0.00000
       8 -> 21        -0.00020
       8 -> 22        -0.00002
       8 -> 24        -0.00062
       8 -> 26         0.00000
       8 -> 27         0.00000
       8 -> 28         0.00004
       8 -> 29        -0.00001
       8 -> 30         0.00014
       8 -> 31         0.00003
       8 -> 32         0.00000
       8 -> 33        -0.00001
       8 -> 34        -0.00006
       8 -> 35         0.00000
       8 -> 36         0.00000
       8 -> 37         0.00000
       8 -> 38         0.00000
       3 <- 13         0.00001
       3 <- 23         0.00000
       4 <- 13        -0.00005
       4 <- 23         0.00000
       4 <- 25         0.00000
       5 <- 13        -0.00001
       5 <- 23         0.00000
       5 <- 25         0.00000
       6 <-  9         0.00000
       6 <- 13         0.00000
       6 <- 23         0.00000
       6 <- 25         0.00000
       7 <-  9         0.00000
       7 <- 10         0.00000
       7 <- 13         0.00007
       7 <- 23         0.00000
       7 <- 25         0.00000
       8 <-  9         0.00000
       8 <- 10         0.00000
       8 <- 11         0.00000
       8 <- 12         0.00000
       8 <- 13         0.00000
       8 <- 14         0.00000
       8 <- 15         0.00000
       8 <- 16         0.00000
       8 <- 17         0.00000
       8 <- 18         0.00000
       8 <- 19         0.00000
       8 <- 20         0.00000
       8 <- 21         0.00000
       8 <- 22         0.00000
       8 <- 24         0.00000
       8 <- 26         0.00000
       8 <- 27         0.00000
       8 <- 28         0.00000
       8 <- 29         0.00000
       8 <- 30         0.00000
       8 <- 31         0.00000
       8 <- 32         0.00000
       8 <- 33         0.00000
       8 <- 34         0.00000
       8 <- 35         0.00000
       8 <- 36         0.00000
       8 <- 37         0.00000
       8 <- 38         0.00000
 This state for optimization and/or second-order correction.
 Copying the excited state density for this state as the 1-particle RhoCI density.
 
 Excited state symmetry could not be determined.
 Excited State   2:      Singlet-?Sym    3.0342 eV  408.63 nm  f=0.0000  <S**2>=0.000
       3 -> 13         0.00000
       3 -> 23         0.00000
       4 -> 13         0.00000
       4 -> 23         0.00000
       4 -> 25         0.00000
       5 -> 13         0.00000
       5 -> 23         0.00000
       5 -> 25         0.00000
       6 ->  9         0.00000
       6 -> 13         0.00000
       6 -> 23         0.00000
       6 -> 25         0.00000
       7 ->  9         0.00000
       7 -> 10         0.00000
       7 -> 13         0.00000
       7 -> 23         0.00000
       7 -> 25         0.00000
       8 ->  9         0.00000
       8 -> 10         0.70711
       8 -> 11         0.00064
       8 -> 12         0.00000
       8 -> 13         0.00000
       8 -> 14         0.00004
       8 -> 15         0.00000
       8 -> 16         0.00035
       8 -> 17         0.00000
       8 -> 18        -0.00001
       8 -> 19         0.00002
       8 -> 20        -0.00014
       8 -> 21         0.00000
       8 -> 22        -0.00001
       8 -> 24         0.00000
       8 -> 26         0.00001
       8 -> 27         0.00059
       8 -> 28         0.00000
       8 -> 29         0.00001
       8 -> 30         0.00000
       8 -> 31        -0.00001
       8 -> 32         0.00000
       8 -> 33         0.00000
       8 -> 34         0.00000
       8 -> 35        -0.00004
       8 -> 36         0.00000
       8 -> 37         0.00000
       8 -> 38         0.00000
       3 <- 13         0.00000
       3 <- 23         0.00000
       4 <- 13        -0.00003
       4 <- 23         0.00000
       4 <- 25         0.00000
       5 <- 13         0.00000
       5 <- 23         0.00000
       5 <- 25         0.00000
       6 <-  9         0.00000
       6 <- 13         0.00000
       6 <- 23         0.00000
       6 <- 25         0.00000
       7 <-  9         0.00000
       7 <- 10         0.00000
       7 <- 13         0.00005
       7 <- 23         0.00000
       7 <- 25         0.00000
       8 <-  9         0.00000
       8 <- 10         0.00000
       8 <- 11         0.00000
       8 <- 12         0.00000
       8 <- 13         0.00000
       8 <- 14         0.00000
       8 <- 15         0.00000
       8 <- 16         0.00000
       8 <- 17         0.00000
       8 <- 18         0.00000
       8 <- 19         0.00000
       8 <- 20         0.00000
       8 <- 21         0.00000
       8 <- 22         0.00000
       8 <- 24         0.00000
       8 <- 26         0.00000
       8 <- 27         0.00000
       8 <- 28         0.00000
       8 <- 29         0.00000
       8 <- 30         0.00000
       8 <- 31         0.00000
       8 <- 32         0.00000
       8 <- 33         0.00000
       8 <- 34         0.00000
       8 <- 35         0.00000
       8 <- 36         0.00000
       8 <- 37         0.00000
       8 <- 38         0.00000
 SavETr:  write IOETrn=   770 NScale= 10 NData=  16 NLR=1 LETran=      46.
 FoFJK:  IHMeth= 1 ICntrl=     0 DoSepK=T KAlg= 1 I1Cent= 0 FoldK=F
 FoFJK:  IHMeth= 1 ICntrl=     0 DoSepK=T KAlg= 1 I1Cent= 0 FoldK=F
          IDoAtm=111111
          Differentiating once with respect to electric field.
                with respect to dipole field.
          Differentiating once with respect to nuclear coordinates.
          There are     1 degrees of freedom in the 1st order CPHF.  IDoFFX=0.
 FoFJK:  IHMeth= 1 ICntrl=     0 DoSepK=T KAlg= 1 I1Cent= 0 FoldK=F
 LinEq1:  Iter=  0 NonCon=     1 RMS=5.97D-02 Max=5.96D-01
 AX will form     1 AO Fock derivatives at one time.
 FoFJK:  IHMeth= 1 ICntrl=     0 DoSepK=T KAlg= 1 I1Cent= 0 FoldK=F
 LinEq1:  Iter=  1 NonCon=     1 RMS=2.73D-02 Max=1.88D-01
 FoFJK:  IHMeth= 1 ICntrl=     0 DoSepK=T KAlg= 1 I1Cent= 0 FoldK=F
 LinEq1:  Iter=  2 NonCon=     1 RMS=1.21D-02 Max=1.03D-01
 FoFJK:  IHMeth= 1 ICntrl=     0 DoSepK=T KAlg= 1 I1Cent= 0 FoldK=F
 LinEq1:  Iter=  3 NonCon=     1 RMS=1.87D-03 Max=1.39D-02
 FoFJK:  IHMeth= 1 ICntrl=     0 DoSepK=T KAlg= 1 I1Cent= 0 FoldK=F
 LinEq1:  Iter=  4 NonCon=     1 RMS=3.52D-04 Max=1.88D-03
 FoFJK:  IHMeth= 1 ICntrl=     0 DoSepK=T KAlg= 1 I1Cent= 0 FoldK=F
 LinEq1:  Iter=  5 NonCon=     1 RMS=3.75D-05 Max=3.11D-04
 FoFJK:  IHMeth= 1 ICntrl=     0 DoSepK=T KAlg= 1 I1Cent= 0 FoldK=F
 LinEq1:  Iter=  6 NonCon=     1 RMS=3.70D-06 Max=2.64D-05
 FoFJK:  IHMeth= 1 ICntrl=     0 DoSepK=T KAlg= 1 I1Cent= 0 FoldK=F
 LinEq1:  Iter=  7 NonCon=     1 RMS=8.65D-07 Max=5.43D-06
 FoFJK:  IHMeth= 1 ICntrl=     0 DoSepK=T KAlg= 1 I1Cent= 0 FoldK=F
 LinEq1:  Iter=  8 NonCon=     1 RMS=2.00D-07 Max=1.55D-06
 FoFJK:  IHMeth= 1 ICntrl=     0 DoSepK=T KAlg= 1 I1Cent= 0 FoldK=F
 LinEq1:  Iter=  9 NonCon=     1 RMS=6.27D-08 Max=7.19D-07
 FoFJK:  IHMeth= 1 ICntrl=     0 DoSepK=T KAlg= 1 I1Cent= 0 FoldK=F
 LinEq1:  Iter= 10 NonCon=     1 RMS=1.40D-08 Max=1.36D-07
 FoFJK:  IHMeth= 1 ICntrl=     0 DoSepK=T KAlg= 1 I1Cent= 0 FoldK=F
 LinEq1:  Iter= 11 NonCon=     1 RMS=2.65D-09 Max=2.36D-08
 FoFJK:  IHMeth= 1 ICntrl=     0 DoSepK=T KAlg= 1 I1Cent= 0 FoldK=F
 LinEq1:  Iter= 12 NonCon=     1 RMS=7.47D-10 Max=5.52D-09
 FoFJK:  IHMeth= 1 ICntrl=     0 DoSepK=T KAlg= 1 I1Cent= 0 FoldK=F
 LinEq1:  Iter= 13 NonCon=     1 RMS=1.10D-10 Max=5.91D-10
 FoFJK:  IHMeth= 1 ICntrl=     0 DoSepK=T KAlg= 1 I1Cent= 0 FoldK=F
 LinEq1:  Iter= 14 NonCon=     0 RMS=1.43D-11 Max=1.89D-10
 Linear equations converged to 1.000D-10 1.000D-09 after    14 iterations.
 FoFJK:  IHMeth= 1 ICntrl=     0 DoSepK=T KAlg= 1 I1Cent= 0 FoldK=F
 End of Minotr Frequency-dependent properties file   721 does not exist.
 End of Minotr Frequency-dependent properties file   722 does not exist.

 **********************************************************************

            Population analysis using the SCF density.

 **********************************************************************

 Alpha  occ. eigenvalues --  -14.80980 -10.72852  -1.37949  -0.98121  -0.97123
 Alpha  occ. eigenvalues --   -0.75808  -0.71472  -0.42820
 Alpha virt. eigenvalues --   -0.35701  -0.28494  -0.19764  -0.09157  -0.08393
 Alpha virt. eigenvalues --    0.07589   0.28802   0.31187   0.33966   0.39043
 Alpha virt. eigenvalues --    0.43897   0.47957   0.58310   0.61413   0.80030
 Alpha virt. eigenvalues --    0.81875   0.83646   0.93690   1.18341   1.22428
 Alpha virt. eigenvalues --    1.39887   1.49811   1.56454   1.87728   2.06348
 Alpha virt. eigenvalues --    2.09732   2.14859   2.42207   3.43483   3.66161
     Molecular Orbital Coefficients:
                           1         2         3         4         5
                           O         O         O         O         O
     Eigenvalues --   -14.80980 -10.72852  -1.37949  -0.98121  -0.97123
   1 1   C  1S          0.00006   0.99290  -0.10632   0.14441   0.02197
   2        2S          0.00031   0.04649   0.22466  -0.33995  -0.05205
   3        2PX         0.00031   0.00308   0.18201  -0.13309  -0.00095
   4        2PY        -0.00004  -0.00044  -0.02637  -0.00008   0.13415
   5        2PZ        -0.00003  -0.00030  -0.01838   0.01195  -0.00590
   6        3S         -0.00045  -0.00538   0.05920  -0.25057  -0.03908
   7        3PX        -0.00020  -0.00117  -0.00812  -0.01987   0.00107
   8        3PY         0.00003   0.00017   0.00122  -0.00142   0.02944
   9        3PZ         0.00001   0.00011   0.00072   0.00235  -0.00134
  10        4XX        -0.00007  -0.00832   0.02060   0.00226   0.00617
  11        4YY        -0.00002  -0.00966  -0.01463   0.01526  -0.00369
  12        4ZZ        -0.00002  -0.00962  -0.01791   0.01608   0.00261
  13        4XY         0.00001  -0.00023  -0.00605  -0.00153   0.02332
  14        4XZ         0.00001  -0.00015  -0.00456   0.00138  -0.00153
  15        4YZ         0.00000   0.00002   0.00047   0.00029  -0.00232
  16 2   N  1S          0.99265  -0.00026  -0.19107  -0.07885  -0.01180
  17        2S          0.03476   0.00009   0.40248   0.17923   0.02667
  18        2PX        -0.00022   0.00070  -0.10949   0.40490   0.12944
  19        2PY         0.00003  -0.00010   0.01517  -0.13373   0.47938
  20        2PZ        -0.00002  -0.00007   0.00747  -0.04526  -0.03513
  21        3S          0.00419  -0.00002   0.39153   0.26655   0.04085
  22        3PX         0.00000   0.00064  -0.04122   0.16693   0.06528
  23        3PY         0.00000  -0.00012   0.00617  -0.06722   0.28330
  24        3PZ         0.00001  -0.00004   0.00203  -0.01940  -0.01956
  25        4XX        -0.00824  -0.00114   0.00327  -0.02263  -0.00372
  26        4YY        -0.00829  -0.00005   0.01814   0.03113   0.00492
  27        4ZZ        -0.00834   0.00017  -0.01817  -0.00395  -0.00040
  28        4XY        -0.00001   0.00019   0.00199   0.00860   0.00046
  29        4XZ        -0.00001   0.00015  -0.00280   0.00118  -0.00004
  30        4YZ         0.00000  -0.00001  -0.00199  -0.00219  -0.00241
  31 3   H  1S          0.00000   0.00000   0.00000   0.00000   0.00000
  32        2S          0.00000   0.00000   0.00000   0.00000   0.00000
  33 4   H  1S          0.00000   0.00000   0.00000   0.00000   0.00000
  34        2S          0.00000   0.00000   0.00000   0.00000   0.00000
  35 5   H  1S          0.00033   0.00008   0.09349   0.17406  -0.19895
  36        2S         -0.00051   0.00049  -0.00551   0.05050  -0.03243
  37 6   H  1S          0.00032   0.00009   0.09275   0.10576   0.24172
  38        2S         -0.00050   0.00052  -0.00557   0.03875   0.04787
                           6         7         8         9        10
                           O         O         O         V         V
     Eigenvalues --    -0.75808  -0.71472  -0.42820  -0.35701  -0.28494
   1 1   C  1S          0.00419  -0.14559   0.00000  -0.00008   0.00011
   2        2S         -0.00878   0.31112   0.00000   0.00019  -0.00010
   3        2PX         0.04276  -0.46013   0.00000   0.08976   0.06282
   4        2PY         0.01302   0.06846   0.00000   0.63342   0.02476
   5        2PZ         0.33359   0.05258   0.00000  -0.03615   0.59032
   6        3S         -0.01420   0.60402   0.00000   0.00001  -0.00622
   7        3PX         0.01463  -0.09706   0.00000   0.06945   0.05169
   8        3PY         0.00526   0.01495   0.00000   0.49247   0.02186
   9        3PZ         0.12856   0.01243   0.00000  -0.02809   0.51172
  10        4XX         0.00813  -0.04958   0.00000   0.00472  -0.00009
  11        4YY        -0.00037   0.00634   0.00000  -0.00493   0.00034
  12        4ZZ        -0.00638   0.00188   0.00000   0.00013  -0.00046
  13        4XY         0.00085   0.00968   0.00000   0.01911   0.00012
  14        4XZ         0.03785   0.00666   0.00000  -0.00139   0.00088
  15        4YZ        -0.00566  -0.00131   0.00000  -0.00177  -0.00015
  16 2   N  1S         -0.00392   0.03302   0.00000   0.00022   0.00382
  17        2S          0.00998  -0.08294   0.00000  -0.00016  -0.00869
  18        2PX         0.05848   0.28138   0.00000  -0.01532  -0.05000
  19        2PY         0.02233  -0.03956   0.00000  -0.10202  -0.01559
  20        2PZ         0.53472  -0.01764   0.00000   0.00589  -0.39423
  21        3S          0.01389  -0.17701   0.00000  -0.00275  -0.02572
  22        3PX         0.03990   0.16987   0.00000  -0.00914  -0.05653
  23        3PY         0.01500  -0.02336   0.00000  -0.05380  -0.01623
  24        3PZ         0.36054  -0.00918   0.00000   0.00323  -0.42177
  25        4XX        -0.00422   0.00474   0.00000  -0.01058  -0.00494
  26        4YY         0.00060   0.00709   0.00000   0.01121   0.00119
  27        4ZZ         0.00310   0.00309   0.00000  -0.00047   0.00530
  28        4XY        -0.00065   0.00013   0.00000  -0.04434  -0.00052
  29        4XZ        -0.02425  -0.00120   0.00000   0.00328  -0.02612
  30        4YZ         0.00349  -0.00008   0.00000   0.00499   0.00405
  31 3   H  1S          0.00000   0.00000   0.25814   0.00000   0.00000
  32        2S          0.00000   0.00000   0.40606   0.00000   0.00000
  33 4   H  1S          0.00000   0.00000   0.25814   0.00000   0.00000
  34        2S          0.00000   0.00000   0.40602   0.00000   0.00000
  35 5   H  1S         -0.00386   0.04513   0.00000   0.12977   0.00896
  36        2S         -0.00193   0.05459   0.00000   0.16344   0.01788
  37 6   H  1S         -0.00386   0.04456   0.00000  -0.12973   0.00905
  38        2S         -0.00198   0.05464   0.00000  -0.16429   0.01815
                          11        12        13        14        15
                           V         V         V         V         V
     Eigenvalues --    -0.19764  -0.09157  -0.08393   0.07589   0.28802
   1 1   C  1S         -0.01247  -0.00041   0.00000  -0.08315  -0.03398
   2        2S          0.07710   0.00004   0.00000   0.15186  -0.33072
   3        2PX        -0.04673   0.00354   0.00000   0.39776  -0.63327
   4        2PY         0.00769   0.00618   0.00000  -0.05826   0.09827
   5        2PZ         0.01535  -0.00071   0.00000  -0.03843   0.05689
   6        3S          0.03486   0.00478   0.00000   2.12569   0.57873
   7        3PX        -0.07251  -0.02697   0.00000   1.75319   1.19677
   8        3PY         0.00945  -0.23099   0.00000  -0.25216  -0.18015
   9        3PZ         0.02179   0.01240   0.00000  -0.16769  -0.11668
  10        4XX         0.01589   0.00361   0.00000  -0.02700  -0.06887
  11        4YY        -0.01269  -0.00401   0.00000   0.00884   0.00929
  12        4ZZ         0.00810  -0.00004   0.00000   0.02026   0.00062
  13        4XY        -0.00455   0.01613   0.00000   0.00597   0.01377
  14        4XZ        -0.00135  -0.00101   0.00000   0.00491   0.00780
  15        4YZ         0.00159  -0.00069   0.00000   0.00004  -0.00182
  16 2   N  1S         -0.11820   0.00240   0.00000   0.08294  -0.00832
  17        2S          0.24463  -0.00480   0.00000  -0.15098  -0.00425
  18        2PX         0.18788   0.05900   0.00000   0.33124   0.28343
  19        2PY        -0.01878   0.44722   0.00000  -0.04948  -0.04082
  20        2PZ        -0.03988  -0.02487   0.00000  -0.03782  -0.03145
  21        3S          1.26077  -0.03715   0.00000  -1.98677  -0.40665
  22        3PX         0.32370   0.13725   0.00000   1.47983  -0.46891
  23        3PY        -0.03364   1.04165   0.00000  -0.22123   0.07243
  24        3PZ        -0.06555  -0.05790   0.00000  -0.15305   0.05204
  25        4XX        -0.00843  -0.00359   0.00000   0.03776  -0.09246
  26        4YY        -0.04216   0.00468   0.00000  -0.04907   0.10641
  27        4ZZ        -0.00650   0.00021   0.00000   0.03167   0.01111
  28        4XY        -0.00582  -0.01735   0.00000  -0.01404   0.03276
  29        4XZ        -0.00008   0.00123   0.00000  -0.00042   0.01195
  30        4YZ         0.00245   0.00168   0.00000   0.00548  -0.00819
  31 3   H  1S          0.00000   0.00000  -0.26336   0.00000   0.00000
  32        2S          0.00000   0.00000  -0.72694   0.00000   0.00000
  33 4   H  1S          0.00000   0.00000   0.26338   0.00000   0.00000
  34        2S          0.00000   0.00000   0.72695   0.00000   0.00000
  35 5   H  1S         -0.21639   0.09885   0.00000  -0.16530   0.26776
  36        2S         -0.92351   1.31368   0.00000  -0.13329  -0.41841
  37 6   H  1S         -0.22219  -0.09572   0.00000  -0.16731   0.27413
  38        2S         -0.95265  -1.26958   0.00000  -0.11343  -0.43419
                          16        17        18        19        20
                           V         V         V         V         V
     Eigenvalues --     0.31187   0.33966   0.39043   0.43897   0.47957
   1 1   C  1S          0.00073  -0.00047   0.02884   0.04367  -0.00050
   2        2S         -0.00127   0.00462  -1.35207  -0.17912   0.01445
   3        2PX        -0.09499  -0.14449   0.23463  -0.73913   0.04848
   4        2PY        -0.03979  -0.99892  -0.03769   0.10877   0.01254
   5        2PZ        -0.92838   0.05751  -0.01706   0.08280   0.33926
   6        3S          0.00080  -0.00253   1.43699   0.38278   0.00206
   7        3PX         0.10457   0.18715  -0.14883   0.79904  -0.08768
   8        3PY         0.04623   1.27875   0.03008  -0.11341  -0.03308
   9        3PZ         1.06503  -0.07392   0.00669  -0.08990  -0.79295
  10        4XX        -0.00816  -0.00588  -0.13018   0.13301  -0.00360
  11        4YY         0.00047   0.00667  -0.08293  -0.05154   0.00179
  12        4ZZ         0.00842   0.00008  -0.06002  -0.00631   0.00363
  13        4XY        -0.00171  -0.02436   0.00780  -0.03267  -0.00059
  14        4XZ        -0.05266   0.00186   0.00697  -0.01707  -0.02590
  15        4YZ         0.00791   0.00267   0.00051   0.00577   0.00376
  16 2   N  1S          0.00054   0.00014  -0.03185  -0.06373   0.00283
  17        2S         -0.00419   0.00075  -0.00968   0.14104  -0.00737
  18        2PX        -0.04189   0.02507   0.20522  -0.52856  -0.10149
  19        2PY        -0.01196   0.17316  -0.02437   0.07526  -0.03756
  20        2PZ        -0.31261  -0.00988  -0.03577   0.03373  -0.90704
  21        3S          0.00067  -0.00444  -0.04810  -0.35357  -0.00819
  22        3PX         0.02255  -0.03707  -0.28581   0.52776   0.15154
  23        3PY         0.00503  -0.24647   0.02932  -0.08546   0.05188
  24        3PZ         0.14349   0.01433   0.04094  -0.03918   1.27420
  25        4XX         0.00957   0.00808  -0.04098  -0.13764   0.00440
  26        4YY        -0.00055  -0.00726  -0.06029  -0.12513   0.00523
  27        4ZZ        -0.01197   0.00018   0.06649   0.13092  -0.00999
  28        4XY         0.00195   0.03328  -0.00143   0.00641   0.00125
  29        4XZ         0.06086  -0.00225   0.01452   0.03445   0.02020
  30        4YZ        -0.00924  -0.00199   0.00626   0.01175  -0.00383
  31 3   H  1S          0.00000   0.00000   0.00000   0.00000   0.00000
  32        2S          0.00000   0.00000   0.00000   0.00000   0.00000
  33 4   H  1S          0.00000   0.00000   0.00000   0.00000   0.00000
  34        2S          0.00000   0.00000   0.00000   0.00000   0.00000
  35 5   H  1S          0.00146   0.00869  -0.25648  -0.49602   0.01983
  36        2S          0.00629   0.23688   0.10880   0.27540  -0.00715
  37 6   H  1S          0.00144  -0.00148  -0.25675  -0.49362   0.01982
  38        2S          0.00624  -0.24544   0.11448   0.28652  -0.00767
                          21        22        23        24        25
                           V         V         V         V         V
     Eigenvalues --     0.58310   0.61413   0.80030   0.81875   0.83646
   1 1   C  1S         -0.00020   0.00682   0.00000   0.00005   0.00000
   2        2S          0.04003  -0.63712   0.00000  -0.01172   0.00000
   3        2PX         0.00320   0.02798   0.00000  -0.04537   0.00000
   4        2PY         0.05675  -0.00276   0.00000  -0.28889   0.00000
   5        2PZ        -0.00291  -0.00107   0.00000   0.01686   0.00000
   6        3S         -0.12927   2.29902   0.00000   0.03030   0.00000
   7        3PX        -0.05871   1.00523   0.00000  -0.03248   0.00000
   8        3PY        -0.05369  -0.14759   0.00000  -0.37477   0.00000
   9        3PZ         0.00838  -0.09748   0.00000   0.01913   0.00000
  10        4XX         0.02320   0.05795   0.00000   0.05886   0.00000
  11        4YY        -0.02259  -0.06647   0.00000  -0.06150   0.00000
  12        4ZZ         0.00238  -0.02611   0.00000   0.00106   0.00000
  13        4XY         0.10500  -0.01317   0.00000   0.23859   0.00000
  14        4XZ        -0.00725  -0.00743   0.00000  -0.01540   0.00000
  15        4YZ        -0.01040   0.00299   0.00000  -0.01007   0.00000
  16 2   N  1S         -0.00114   0.02678   0.00000   0.00056   0.00000
  17        2S          0.03635  -0.57570   0.00000   0.02284   0.00000
  18        2PX         0.15351  -0.65490   0.00000  -0.08342   0.00000
  19        2PY         0.85876   0.14482   0.00000  -0.59430   0.00000
  20        2PZ        -0.05366   0.08518   0.00000   0.03379   0.00000
  21        3S         -0.02728   0.28484   0.00000  -0.07391   0.00000
  22        3PX        -0.27792   1.72203   0.00000   0.28413   0.00000
  23        3PY        -1.33656  -0.32575   0.00000   2.07568   0.00000
  24        3PZ         0.08794  -0.20531   0.00000  -0.11701   0.00000
  25        4XX        -0.01741  -0.19637   0.00000  -0.06493   0.00000
  26        4YY         0.03066   0.04251   0.00000   0.07508   0.00000
  27        4ZZ         0.00504  -0.12699   0.00000  -0.00151   0.00000
  28        4XY        -0.12122   0.02925   0.00000  -0.27875   0.00000
  29        4XZ         0.00925   0.00480   0.00000   0.02500   0.00000
  30        4YZ         0.01958  -0.01046   0.00000   0.06182   0.00000
  31 3   H  1S          0.00000   0.00000  -0.90914   0.00000   0.92774
  32        2S          0.00000   0.00000   1.08872   0.00000  -0.69361
  33 4   H  1S          0.00000   0.00000   0.90901   0.00000   0.92787
  34        2S          0.00000   0.00000  -1.08863   0.00000  -0.69377
  35 5   H  1S          0.54538   0.46930   0.00000   0.59978   0.00000
  36        2S         -1.24787  -1.27880   0.00000   0.59880   0.00000
  37 6   H  1S         -0.59011   0.40022   0.00000  -0.60333   0.00000
  38        2S          1.38399  -1.12214   0.00000  -0.56610   0.00000
                          26        27        28        29        30
                           V         V         V         V         V
     Eigenvalues --     0.93690   1.18341   1.22428   1.39887   1.49811
   1 1   C  1S         -0.00709   0.00001   0.00000   0.00550   0.00002
   2        2S          0.43690  -0.00035  -0.00012  -0.02192  -0.00252
   3        2PX        -0.02169   0.02359   0.00302  -0.05972   0.00502
   4        2PY        -0.00016   0.00880   0.01974   0.00742   0.04151
   5        2PZ         0.00515   0.21912   0.00106   0.00487  -0.00213
   6        3S         -3.57802   0.00782   0.00024  -0.57369  -0.01354
   7        3PX        -2.00335  -0.00217  -0.00245  -0.31608  -0.05868
   8        3PY         0.28748  -0.00282  -0.01799   0.04554  -0.37058
   9        3PZ         0.19604  -0.05889   0.00020   0.03400   0.02150
  10        4XX        -0.09003  -0.10554  -0.00169  -0.00475  -0.12840
  11        4YY        -0.02122   0.01107   0.05785   0.82338   0.09654
  12        4ZZ         0.14618   0.09480  -0.05612  -0.78594   0.03325
  13        4XY         0.01661  -0.01468   0.00257   0.13219  -0.51369
  14        4XZ         0.02572  -0.58139   0.07384  -0.09527  -0.00787
  15        4YZ         0.00719   0.08139   0.57404  -0.09511  -0.27441
  16 2   N  1S         -0.08691   0.00020   0.00003  -0.02720   0.00011
  17        2S         -1.64217   0.00129  -0.00004  -0.38117  -0.00234
  18        2PX         0.26378   0.01426   0.00147   0.00716  -0.01720
  19        2PY        -0.04213   0.00589   0.01017  -0.00425  -0.12174
  20        2PZ        -0.02582   0.14218   0.00100  -0.00044   0.00712
  21        3S          5.49012  -0.00656  -0.00049   1.23457   0.00092
  22        3PX        -1.93116   0.00756   0.00707  -0.25673   0.21010
  23        3PY         0.29639  -0.00104   0.05185   0.04771   1.65966
  24        3PZ         0.18103   0.00995  -0.00263   0.01291  -0.09172
  25        4XX        -0.31438   0.11114   0.03700  -0.04980   0.13999
  26        4YY        -0.41757   0.00325   0.03757   0.15859  -0.12892
  27        4ZZ        -0.02942  -0.11321  -0.07451  -0.22276  -0.01170
  28        4XY        -0.01853   0.01623   0.15276   0.03459   0.58609
  29        4XZ         0.03877   0.60776   0.09998  -0.02876  -0.02358
  30        4YZ         0.02150  -0.10091   0.73461  -0.02195   0.07678
  31 3   H  1S          0.00000   0.00000   0.00000   0.00000   0.00000
  32        2S          0.00000   0.00000   0.00000   0.00000   0.00000
  33 4   H  1S          0.00000   0.00000   0.00000   0.00000   0.00000
  34        2S          0.00000   0.00000   0.00000   0.00000   0.00000
  35 5   H  1S         -0.15735   0.00076   0.03141  -0.21084   0.76873
  36        2S         -0.18497  -0.00241   0.00215  -0.08318   0.37682
  37 6   H  1S         -0.17810   0.00144  -0.03096  -0.21955  -0.76584
  38        2S         -0.18299  -0.00239  -0.00217  -0.08868  -0.36251
                          31        32        33        34        35
                           V         V         V         V         V
     Eigenvalues --     1.56454   1.87728   2.06348   2.09732   2.14859
   1 1   C  1S          0.00004  -0.05349   0.03613  -0.00654  -0.00077
   2        2S         -0.00090  -0.31002   0.09820  -0.01439  -0.00217
   3        2PX         0.00084  -0.32908  -0.05988   0.03523   0.01535
   4        2PY         0.00850   0.04731   0.03066   0.12942   0.00547
   5        2PZ        -0.00049   0.03236   0.00651  -0.00973   0.12787
   6        3S         -0.00646  -0.11433  -1.42778   0.27489   0.03251
   7        3PX        -0.02318   0.12480  -0.83225   0.19944   0.04953
   8        3PY        -0.14187  -0.01717   0.17765   0.25791   0.01018
   9        3PZ         0.00860  -0.01070   0.09172  -0.03468   0.29254
  10        4XX        -0.02297   0.60449  -0.26193   0.28035   0.17377
  11        4YY         0.09633  -0.53506  -0.06184  -0.23221  -0.01066
  12        4ZZ        -0.07265  -0.36688   0.49042  -0.07735  -0.16626
  13        4XY        -0.08338  -0.19047   0.22166   0.90225   0.02588
  14        4XZ         0.11171  -0.10841   0.10397  -0.08853   0.91316
  15        4YZ         0.75321   0.02751   0.00128  -0.08523  -0.13857
  16 2   N  1S          0.00000  -0.03414  -0.06056   0.01195   0.00122
  17        2S         -0.00135  -0.66439  -0.33315   0.06417   0.00566
  18        2PX        -0.00699   0.36970  -0.09052   0.01432  -0.00280
  19        2PY        -0.04896  -0.05530   0.00870  -0.01059  -0.00215
  20        2PZ         0.00268  -0.03588   0.00644  -0.00044  -0.04487
  21        3S          0.00213   1.18188   1.92101  -0.37045  -0.03734
  22        3PX         0.08014  -0.59062  -0.54903   0.04265  -0.02438
  23        3PY         0.63728   0.09063  -0.02771  -0.50667  -0.01813
  24        3PZ        -0.03550   0.04928   0.03312   0.02249  -0.37257
  25        4XX         0.03067   0.45607  -0.15215   0.23616   0.16645
  26        4YY        -0.09355  -0.07535   0.87044  -0.37605  -0.02607
  27        4ZZ         0.06259  -0.67453  -0.82336   0.16280  -0.13814
  28        4XY         0.12659  -0.09170   0.31624   0.81510   0.02380
  29        4XZ        -0.09866  -0.13618  -0.08686  -0.04781   0.89335
  30        4YZ        -0.65172  -0.02036  -0.11687  -0.05876  -0.13201
  31 3   H  1S          0.00000   0.00000   0.00000   0.00000   0.00000
  32        2S          0.00000   0.00000   0.00000   0.00000   0.00000
  33 4   H  1S          0.00000   0.00000   0.00000   0.00000   0.00000
  34        2S          0.00000   0.00000   0.00000   0.00000   0.00000
  35 5   H  1S          0.30110  -0.11297  -0.70940   0.18379   0.01520
  36        2S          0.14177  -0.11790   0.19299  -0.19386  -0.00781
  37 6   H  1S         -0.30107  -0.11765  -0.71032   0.08412   0.01399
  38        2S         -0.13600  -0.12212   0.25635   0.10566  -0.00736
                          36        37        38
                           V         V         V
     Eigenvalues --     2.42207   3.43483   3.66161
   1 1   C  1S          0.03612  -0.08332  -0.43383
   2        2S         -0.58473   0.63196   3.07564
   3        2PX        -0.90035   0.21585  -0.28154
   4        2PY         0.13126  -0.03131   0.04043
   5        2PZ         0.08824  -0.01998   0.02755
   6        3S         -1.94140  -0.93870   1.02690
   7        3PX        -1.10848  -0.55868   0.17846
   8        3PY         0.16020   0.08207  -0.02622
   9        3PZ         0.10749   0.05436  -0.01712
  10        4XX        -0.99584  -0.08369  -2.03660
  11        4YY         0.48286  -0.29837  -1.68803
  12        4ZZ         0.47941  -0.34896  -1.68428
  13        4XY         0.25536  -0.03628   0.05905
  14        4XZ         0.16808  -0.02979   0.04040
  15        4YZ        -0.02601   0.00106  -0.00582
  16 2   N  1S         -0.07265  -0.47752   0.08275
  17        2S         -0.13361   1.02330  -0.10219
  18        2PX        -0.50218   0.14358  -0.31655
  19        2PY         0.07259  -0.01958   0.04495
  20        2PZ         0.04834  -0.01078   0.03109
  21        3S          2.39799   3.72218  -0.74241
  22        3PX        -1.48202  -0.45377   0.04917
  23        3PY         0.21892   0.06524  -0.00299
  24        3PZ         0.15134   0.03220  -0.00564
  25        4XX         1.20564  -1.57747   0.58057
  26        4YY        -0.69563  -1.51858   0.26257
  27        4ZZ        -0.50592  -1.54508   0.22812
  28        4XY        -0.31745   0.01167  -0.05477
  29        4XZ        -0.19308   0.00382  -0.04072
  30        4YZ         0.04125  -0.00269   0.00384
  31 3   H  1S          0.00000   0.00000   0.00000
  32        2S          0.00000   0.00000   0.00000
  33 4   H  1S          0.00000   0.00000   0.00000
  34        2S          0.00000   0.00000   0.00000
  35 5   H  1S          0.13020   0.13306  -0.03066
  36        2S          0.04338  -0.49711   0.01712
  37 6   H  1S          0.12605   0.12682  -0.03142
  38        2S          0.03877  -0.49130   0.01185
     Density Matrix:
                           1         2         3         4         5
   1 1   C  1S          2.07942
   2        2S         -0.14658   0.53556
   3        2PX         0.06327  -0.11440   0.52879
   4        2PY        -0.00923   0.01657  -0.07173   0.04710
   5        2PZ        -0.00602   0.01106  -0.02972   0.01527   0.22912
   6        3S         -0.27335   0.57662  -0.46878   0.06878   0.04634
   7        3PX         0.02209  -0.05101   0.09290  -0.01219  -0.00063
   8        3PY        -0.00335   0.00767  -0.01254   0.01002   0.00466
   9        3PZ        -0.00185   0.00435  -0.00080   0.00465   0.08712
  10        4XX        -0.00548  -0.02469   0.05315  -0.00600  -0.00056
  11        4YY        -0.01367  -0.01351  -0.01531   0.00065   0.00137
  12        4ZZ        -0.01115  -0.01886  -0.01314   0.00174  -0.00304
  13        4XY        -0.00139   0.00188  -0.01067   0.00792   0.00149
  14        4XZ        -0.00062   0.00063  -0.00491   0.00173   0.02617
  15        4YZ         0.00027  -0.00046   0.00082  -0.00097  -0.00390
  16 2   N  1S          0.00728  -0.00980  -0.07866   0.01126   0.00608
  17        2S         -0.00822   0.00446   0.17595  -0.02520  -0.01290
  18        2PX         0.06587  -0.16384  -0.40181   0.08049   0.08079
  19        2PY        -0.00927   0.02282   0.07853   0.12300   0.00133
  20        2PZ        -0.00674   0.01742   0.07680   0.00169   0.35396
  21        3S          0.04714  -0.11994   0.23558  -0.03361  -0.01786
  22        3PX         0.01200  -0.03376  -0.21246   0.04396   0.04922
  23        3PY        -0.00158   0.00417   0.04238   0.07289   0.00237
  24        3PZ        -0.00129   0.00410   0.04523   0.00278   0.23927
  25        4XX        -0.01108   0.02016   0.00248  -0.00063  -0.00293
  26        4YY         0.00320  -0.00913  -0.00818   0.00135   0.00117
  27        4ZZ         0.00217  -0.00356  -0.00814   0.00136   0.00297
  28        4XY         0.00241  -0.00489  -0.00174   0.00002  -0.00029
  29        4XZ         0.00138  -0.00236  -0.00230  -0.00066  -0.01617
  30        4YZ        -0.00028   0.00073   0.00024  -0.00046   0.00237
  31 3   H  1S          0.00000   0.00000   0.00000   0.00000   0.00000
  32        2S          0.00000   0.00000   0.00000   0.00000   0.00000
  33 4   H  1S          0.00000   0.00000   0.00000   0.00000   0.00000
  34        2S          0.00000   0.00000   0.00000   0.00000   0.00000
  35 5   H  1S          0.00863  -0.02747  -0.05378  -0.05226   0.00524
  36        2S         -0.00060   0.00062  -0.06579  -0.00099   0.00624
  37 6   H  1S          0.00862  -0.02760  -0.03618   0.06595  -0.00163
  38        2S         -0.00041   0.00025  -0.06289   0.02056   0.00499
                           6         7         8         9        10
   6        3S          0.86577
   7        3PX        -0.10875   0.02020
   8        3PY         0.01646  -0.00265   0.00224
   9        3PZ         0.01037   0.00124   0.00164   0.03338
  10        4XX        -0.05921   0.00947  -0.00099   0.00088   0.00612
  11        4YY        -0.00132  -0.00160  -0.00011   0.00012  -0.00105
  12        4ZZ        -0.00782  -0.00087   0.00005  -0.00155  -0.00076
  13        4XY         0.00990  -0.00164   0.00166   0.00038  -0.00091
  14        4XZ         0.00585  -0.00017   0.00049   0.00990  -0.00024
  15        4YZ        -0.00133   0.00007  -0.00024  -0.00148   0.00003
  16 2   N  1S          0.05692  -0.00071   0.00007  -0.00077  -0.01184
  17        2S         -0.14476   0.00277  -0.00033   0.00185   0.02610
  18        2PX         0.11226  -0.06695   0.01523   0.02343  -0.02804
  19        2PY        -0.01708   0.01443   0.02770   0.00287   0.01022
  20        2PZ        -0.01019   0.02068   0.00318   0.13694   0.01012
  21        3S         -0.30465   0.01790  -0.00254   0.00088   0.03562
  22        3PX         0.11043  -0.03763   0.00877   0.01503  -0.01634
  23        3PY        -0.01637   0.00815   0.01635   0.00221   0.00601
  24        3PZ        -0.00984   0.01303   0.00243   0.09244   0.00653
  25        4XX         0.01789  -0.00020  -0.00005  -0.00106  -0.00053
  26        4YY        -0.00527  -0.00288   0.00046   0.00049   0.00026
  27        4ZZ         0.00350  -0.00005   0.00007   0.00083  -0.00103
  28        4XY        -0.00393  -0.00042   0.00000  -0.00012   0.00010
  29        4XZ        -0.00168  -0.00048  -0.00030  -0.00626  -0.00039
  30        4YZ         0.00085   0.00023  -0.00011   0.00089  -0.00006
  31 3   H  1S          0.00000   0.00000   0.00000   0.00000   0.00000
  32        2S          0.00000   0.00000   0.00000   0.00000   0.00000
  33 4   H  1S          0.00000   0.00000   0.00000   0.00000   0.00000
  34        2S          0.00000   0.00000   0.00000   0.00000   0.00000
  35 5   H  1S         -0.00598  -0.01774  -0.01067   0.00161  -0.00235
  36        2S          0.04258  -0.01264  -0.00045   0.00118  -0.00585
  37 6   H  1S         -0.00698  -0.01396   0.01545   0.00010   0.00280
  38        2S          0.04224  -0.01201   0.00431   0.00090  -0.00492
                          11        12        13        14        15
  11        4YY         0.00119
  12        4ZZ         0.00121   0.00145
  13        4XY         0.00008   0.00032   0.00135
  14        4XZ         0.00025  -0.00025   0.00017   0.00300
  15        4YZ         0.00000   0.00005  -0.00015  -0.00044   0.00008
  16 2   N  1S          0.00366   0.00439   0.00265   0.00172  -0.00021
  17        2S         -0.00757  -0.00895  -0.00576  -0.00361   0.00046
  18        2PX         0.01812   0.01792   0.01167   0.00989  -0.00187
  19        2PY        -0.00858  -0.00278   0.02186  -0.00081  -0.00244
  20        2PZ        -0.00196  -0.00879  -0.00102   0.04016  -0.00586
  21        3S         -0.00588  -0.00608  -0.00705  -0.00427   0.00064
  22        3PX         0.00793   0.00730   0.00639   0.00592  -0.00114
  23        3PY        -0.00463  -0.00118   0.01292  -0.00028  -0.00146
  24        3PZ        -0.00089  -0.00543  -0.00044   0.02716  -0.00397
  25        4XX        -0.00067  -0.00077  -0.00006  -0.00034   0.00004
  26        4YY         0.00047   0.00040   0.00005   0.00005  -0.00001
  27        4ZZ         0.00045   0.00049   0.00028   0.00043  -0.00006
  28        4XY         0.00020   0.00021  -0.00003  -0.00004   0.00001
  29        4XZ         0.00012   0.00044  -0.00004  -0.00182   0.00028
  30        4YZ         0.00001  -0.00006  -0.00008   0.00028  -0.00003
  31 3   H  1S          0.00000   0.00000   0.00000   0.00000   0.00000
  32        2S          0.00000   0.00000   0.00000   0.00000   0.00000
  33 4   H  1S          0.00000   0.00000   0.00000   0.00000   0.00000
  34        2S          0.00000   0.00000   0.00000   0.00000   0.00000
  35 5   H  1S          0.00462   0.00143  -0.01008   0.00054   0.00104
  36        2S          0.00263   0.00187  -0.00055   0.00087   0.00005
  37 6   H  1S         -0.00070   0.00155   0.01069  -0.00099  -0.00105
  38        2S          0.00168   0.00192   0.00324   0.00059  -0.00033
                          16        17        18        19        20
  16 2   N  1S          2.05865
  17        2S         -0.11923   0.40603
  18        2PX        -0.00738   0.01839   0.55056
  19        2PY         0.00125  -0.00315  -0.00717   0.49996
  20        2PZ        -0.00028   0.00151   0.00523   0.00394   0.57916
  21        3S         -0.19609   0.44282   0.04270  -0.00563  -0.00005
  22        3PX        -0.00121   0.00276   0.26137   0.00503   0.01636
  23        3PY        -0.00011   0.00015   0.00616   0.29230   0.00314
  24        3PZ        -0.00067   0.00236   0.01578   0.00333   0.38907
  25        4XX        -0.01360  -0.00712  -0.01783   0.00202  -0.00232
  26        4YY        -0.02794   0.02428   0.02657  -0.00360  -0.00250
  27        4ZZ        -0.00880  -0.01709   0.00278   0.00001   0.00332
  28        4XY        -0.00213   0.00467   0.00664  -0.00183  -0.00148
  29        4XZ         0.00097  -0.00212  -0.00195  -0.00143  -0.02603
  30        4YZ         0.00112  -0.00243  -0.00160  -0.00163   0.00408
  31 3   H  1S          0.00000   0.00000   0.00000   0.00000   0.00000
  32        2S          0.00000   0.00000   0.00000   0.00000   0.00000
  33 4   H  1S          0.00000   0.00000   0.00000   0.00000   0.00000
  34        2S          0.00000   0.00000   0.00000   0.00000   0.00000
  35 5   H  1S         -0.05482   0.11950   0.09393  -0.23821  -0.00611
  36        2S         -0.00248   0.00281   0.06420  -0.04917  -0.00637
  37 6   H  1S         -0.05421   0.11801   0.15253   0.20258  -0.03087
  38        2S         -0.00248   0.00282   0.07552   0.03095  -0.01100
                          21        22        23        24        25
  21        3S          0.51511
  22        3PX         0.00302   0.12855
  23        3PY         0.00082   0.00730   0.17117
  24        3PZ         0.00292   0.01645   0.00280   0.26168
  25        4XX        -0.01167  -0.00704   0.00062  -0.00209   0.00129
  26        4YY         0.02863   0.01200  -0.00149  -0.00102  -0.00113
  27        4ZZ        -0.01744   0.00142   0.00003   0.00227   0.00020
  28        4XY         0.00611   0.00276  -0.00089  -0.00082  -0.00037
  29        4XZ        -0.00182  -0.00172  -0.00089  -0.01752   0.00012
  30        4YZ        -0.00279  -0.00063  -0.00099   0.00269   0.00007
  31 3   H  1S          0.00000   0.00000   0.00000   0.00000   0.00000
  32        2S          0.00000   0.00000   0.00000   0.00000   0.00000
  33 4   H  1S          0.00000   0.00000   0.00000   0.00000   0.00000
  34        2S          0.00000   0.00000   0.00000   0.00000   0.00000
  35 5   H  1S          0.13367   0.03946  -0.13720  -0.00221  -0.00533
  36        2S          0.00057   0.03147  -0.02784  -0.00311  -0.00154
  37 6   H  1S          0.13287   0.07405   0.12169  -0.01679  -0.00553
  38        2S          0.00080   0.03806   0.01923  -0.00583  -0.00160
                          26        27        28        29        30
  26        4YY         0.00288
  27        4ZZ        -0.00072   0.00087
  28        4XY         0.00061  -0.00014   0.00016
  29        4XZ        -0.00007  -0.00006   0.00004   0.00120
  30        4YZ        -0.00023   0.00011  -0.00005  -0.00016   0.00005
  31 3   H  1S          0.00000   0.00000   0.00000   0.00000   0.00000
  32        2S          0.00000   0.00000   0.00000   0.00000   0.00000
  33 4   H  1S          0.00000   0.00000   0.00000   0.00000   0.00000
  34        2S          0.00000   0.00000   0.00000   0.00000   0.00000
  35 5   H  1S          0.01290  -0.00436   0.00320  -0.00002  -0.00021
  36        2S          0.00341   0.00016   0.00083   0.00012  -0.00006
  37 6   H  1S          0.01295  -0.00415   0.00243  -0.00021  -0.00203
  38        2S          0.00346   0.00019   0.00071   0.00008  -0.00040
                          31        32        33        34        35
  31 3   H  1S          0.13328
  32        2S          0.20965   0.32977
  33 4   H  1S          0.13328   0.20964   0.13327
  34        2S          0.20962   0.32974   0.20962   0.32971
  35 5   H  1S          0.00000   0.00000   0.00000   0.00000   0.16135
  36        2S          0.00000   0.00000   0.00000   0.00000   0.03440
  37 6   H  1S          0.00000   0.00000   0.00000   0.00000  -0.03797
  38        2S          0.00000   0.00000   0.00000   0.00000  -0.00165
                          36        37        38
  36        2S          0.01323
  37 6   H  1S         -0.00114   0.16043
  38        2S          0.00685   0.03519   0.01363
    Full Mulliken population analysis:
                           1         2         3         4         5
   1 1   C  1S          2.07942
   2        2S         -0.03211   0.53556
   3        2PX         0.00000   0.00000   0.52879
   4        2PY         0.00000   0.00000   0.00000   0.04710
   5        2PZ         0.00000   0.00000   0.00000   0.00000   0.22912
   6        3S         -0.05037   0.46837   0.00000   0.00000   0.00000
   7        3PX         0.00000   0.00000   0.05293   0.00000   0.00000
   8        3PY         0.00000   0.00000   0.00000   0.00571   0.00000
   9        3PZ         0.00000   0.00000   0.00000   0.00000   0.04964
  10        4XX        -0.00043  -0.01754   0.00000   0.00000   0.00000
  11        4YY        -0.00108  -0.00960   0.00000   0.00000   0.00000
  12        4ZZ        -0.00088  -0.01340   0.00000   0.00000   0.00000
  13        4XY         0.00000   0.00000   0.00000   0.00000   0.00000
  14        4XZ         0.00000   0.00000   0.00000   0.00000   0.00000
  15        4YZ         0.00000   0.00000   0.00000   0.00000   0.00000
  16 2   N  1S          0.00000  -0.00018  -0.00306  -0.00006  -0.00002
  17        2S         -0.00009   0.00076   0.04555   0.00095   0.00033
  18        2PX        -0.00160   0.03610   0.11467   0.00441   0.00300
  19        2PY        -0.00003   0.00073   0.00430   0.01042  -0.00001
  20        2PZ        -0.00002   0.00038   0.00285  -0.00001   0.03150
  21        3S          0.00300  -0.04299   0.06733   0.00139   0.00050
  22        3PX        -0.00163   0.01894   0.04552   0.00300   0.00227
  23        3PY        -0.00003   0.00034   0.00289   0.01800  -0.00002
  24        3PZ        -0.00002   0.00023   0.00209  -0.00002   0.06036
  25        4XX        -0.00072   0.00717   0.00102   0.00006   0.00019
  26        4YY         0.00001  -0.00103  -0.00137   0.00001  -0.00002
  27        4ZZ         0.00000  -0.00039  -0.00131  -0.00003   0.00002
  28        4XY        -0.00004   0.00030   0.00016   0.00000   0.00000
  29        4XZ        -0.00001   0.00010   0.00015  -0.00001   0.00317
  30        4YZ         0.00000   0.00000   0.00000  -0.00001   0.00007
  31 3   H  1S          0.00000   0.00000   0.00000   0.00000   0.00000
  32        2S          0.00000   0.00000   0.00000   0.00000   0.00000
  33 4   H  1S          0.00000   0.00000   0.00000   0.00000   0.00000
  34        2S          0.00000   0.00000   0.00000   0.00000   0.00000
  35 5   H  1S          0.00000  -0.00057  -0.00166   0.00140  -0.00001
  36        2S         -0.00001   0.00010  -0.00764   0.00010  -0.00006
  37 6   H  1S          0.00000  -0.00059  -0.00136   0.00115   0.00001
  38        2S         -0.00001   0.00004  -0.00875   0.00133  -0.00010
                           6         7         8         9        10
   6        3S          0.86577
   7        3PX         0.00000   0.02020
   8        3PY         0.00000   0.00000   0.00224
   9        3PZ         0.00000   0.00000   0.00000   0.03338
  10        4XX        -0.03730   0.00000   0.00000   0.00000   0.00612
  11        4YY        -0.00083   0.00000   0.00000   0.00000  -0.00035
  12        4ZZ        -0.00493   0.00000   0.00000   0.00000  -0.00025
  13        4XY         0.00000   0.00000   0.00000   0.00000   0.00000
  14        4XZ         0.00000   0.00000   0.00000   0.00000   0.00000
  15        4YZ         0.00000   0.00000   0.00000   0.00000   0.00000
  16 2   N  1S          0.00310  -0.00007   0.00000   0.00001  -0.00058
  17        2S         -0.04470   0.00138   0.00002  -0.00009   0.00830
  18        2PX        -0.02067   0.00798   0.00067   0.00070   0.01023
  19        2PY        -0.00046   0.00064   0.00496  -0.00001   0.00082
  20        2PZ        -0.00018   0.00062  -0.00001   0.02499   0.00055
  21        3S         -0.17137   0.01113   0.00023  -0.00005   0.01322
  22        3PX        -0.06126   0.00205   0.00078   0.00090   0.00695
  23        3PY        -0.00132   0.00072   0.00893  -0.00002   0.00057
  24        3PZ        -0.00054   0.00078  -0.00002   0.05111   0.00042
  25        4XX         0.00654  -0.00008   0.00000   0.00006  -0.00025
  26        4YY        -0.00145  -0.00129  -0.00002  -0.00002   0.00005
  27        4ZZ         0.00096  -0.00002   0.00000  -0.00002  -0.00018
  28        4XY         0.00009   0.00001   0.00000   0.00000  -0.00001
  29        4XZ         0.00003   0.00000   0.00000   0.00101   0.00003
  30        4YZ         0.00000   0.00000   0.00000   0.00002   0.00000
  31 3   H  1S          0.00000   0.00000   0.00000   0.00000   0.00000
  32        2S          0.00000   0.00000   0.00000   0.00000   0.00000
  33 4   H  1S          0.00000   0.00000   0.00000   0.00000   0.00000
  34        2S          0.00000   0.00000   0.00000   0.00000   0.00000
  35 5   H  1S         -0.00069  -0.00368   0.00191  -0.00003  -0.00006
  36        2S          0.01465  -0.00474   0.00015  -0.00004  -0.00090
  37 6   H  1S         -0.00081  -0.00347   0.00179   0.00000   0.00011
  38        2S          0.01461  -0.00538   0.00090  -0.00006  -0.00085
                          11        12        13        14        15
  11        4YY         0.00119
  12        4ZZ         0.00040   0.00145
  13        4XY         0.00000   0.00000   0.00135
  14        4XZ         0.00000   0.00000   0.00000   0.00300
  15        4YZ         0.00000   0.00000   0.00000   0.00000   0.00008
  16 2   N  1S          0.00001   0.00001  -0.00003  -0.00001   0.00000
  17        2S         -0.00051  -0.00058   0.00037   0.00016   0.00000
  18        2PX        -0.00183  -0.00171   0.00108   0.00062   0.00002
  19        2PY         0.00011  -0.00004   0.00324   0.00001   0.00004
  20        2PZ        -0.00002   0.00008   0.00001   0.00632   0.00013
  21        3S         -0.00145  -0.00149   0.00022   0.00009   0.00000
  22        3PX        -0.00345  -0.00316   0.00017   0.00011   0.00001
  23        3PY        -0.00014  -0.00007   0.00245   0.00000   0.00003
  24        3PZ        -0.00004  -0.00011   0.00000   0.00526   0.00011
  25        4XX        -0.00013  -0.00014   0.00001   0.00003   0.00000
  26        4YY         0.00004   0.00001   0.00000   0.00000   0.00000
  27        4ZZ         0.00002   0.00004  -0.00001   0.00001   0.00000
  28        4XY         0.00001  -0.00001   0.00001   0.00000   0.00000
  29        4XZ         0.00000   0.00001   0.00000   0.00058   0.00002
  30        4YZ         0.00000   0.00000   0.00000   0.00002   0.00000
  31 3   H  1S          0.00000   0.00000   0.00000   0.00000   0.00000
  32        2S          0.00000   0.00000   0.00000   0.00000   0.00000
  33 4   H  1S          0.00000   0.00000   0.00000   0.00000   0.00000
  34        2S          0.00000   0.00000   0.00000   0.00000   0.00000
  35 5   H  1S          0.00010   0.00001   0.00034   0.00000   0.00000
  36        2S          0.00037   0.00021   0.00004  -0.00001   0.00000
  37 6   H  1S         -0.00001   0.00001   0.00028   0.00001   0.00000
  38        2S          0.00021   0.00021   0.00016  -0.00001   0.00000
                          16        17        18        19        20
  16 2   N  1S          2.05865
  17        2S         -0.02650   0.40603
  18        2PX         0.00000   0.00000   0.55056
  19        2PY         0.00000   0.00000   0.00000   0.49996
  20        2PZ         0.00000   0.00000   0.00000   0.00000   0.57916
  21        3S         -0.03370   0.34341   0.00000   0.00000   0.00000
  22        3PX         0.00000   0.00000   0.13573   0.00000   0.00000
  23        3PY         0.00000   0.00000   0.00000   0.15179   0.00000
  24        3PZ         0.00000   0.00000   0.00000   0.00000   0.20204
  25        4XX        -0.00069  -0.00453   0.00000   0.00000   0.00000
  26        4YY        -0.00141   0.01544   0.00000   0.00000   0.00000
  27        4ZZ        -0.00044  -0.01087   0.00000   0.00000   0.00000
  28        4XY         0.00000   0.00000   0.00000   0.00000   0.00000
  29        4XZ         0.00000   0.00000   0.00000   0.00000   0.00000
  30        4YZ         0.00000   0.00000   0.00000   0.00000   0.00000
  31 3   H  1S          0.00000   0.00000   0.00000   0.00000   0.00000
  32        2S          0.00000   0.00000   0.00000   0.00000   0.00000
  33 4   H  1S          0.00000   0.00000   0.00000   0.00000   0.00000
  34        2S          0.00000   0.00000   0.00000   0.00000   0.00000
  35 5   H  1S         -0.00150   0.02697   0.00407   0.06899   0.00000
  36        2S         -0.00019   0.00113   0.00185   0.00945   0.00000
  37 6   H  1S         -0.00144   0.02615   0.01757   0.05328   0.00094
  38        2S         -0.00018   0.00113   0.00585   0.00548   0.00022
                          21        22        23        24        25
  21        3S          0.51511
  22        3PX         0.00000   0.12855
  23        3PY         0.00000   0.00000   0.17117
  24        3PZ         0.00000   0.00000   0.00000   0.26168
  25        4XX        -0.00782   0.00000   0.00000   0.00000   0.00129
  26        4YY         0.01919   0.00000   0.00000   0.00000  -0.00038
  27        4ZZ        -0.01169   0.00000   0.00000   0.00000   0.00007
  28        4XY         0.00000   0.00000   0.00000   0.00000   0.00000
  29        4XZ         0.00000   0.00000   0.00000   0.00000   0.00000
  30        4YZ         0.00000   0.00000   0.00000   0.00000   0.00000
  31 3   H  1S          0.00000   0.00000   0.00000   0.00000   0.00000
  32        2S          0.00000   0.00000   0.00000   0.00000   0.00000
  33 4   H  1S          0.00000   0.00000   0.00000   0.00000   0.00000
  34        2S          0.00000   0.00000   0.00000   0.00000   0.00000
  35 5   H  1S          0.05098   0.00319   0.07410   0.00000  -0.00071
  36        2S          0.00039   0.00254   0.01501   0.00000  -0.00056
  37 6   H  1S          0.05026   0.01610   0.06040   0.00096  -0.00098
  38        2S          0.00054   0.00829   0.00957   0.00034  -0.00059
                          26        27        28        29        30
  26        4YY         0.00288
  27        4ZZ        -0.00024   0.00087
  28        4XY         0.00000   0.00000   0.00016
  29        4XZ         0.00000   0.00000   0.00000   0.00120
  30        4YZ         0.00000   0.00000   0.00000   0.00000   0.00005
  31 3   H  1S          0.00000   0.00000   0.00000   0.00000   0.00000
  32        2S          0.00000   0.00000   0.00000   0.00000   0.00000
  33 4   H  1S          0.00000   0.00000   0.00000   0.00000   0.00000
  34        2S          0.00000   0.00000   0.00000   0.00000   0.00000
  35 5   H  1S          0.00600  -0.00055  -0.00028   0.00000   0.00000
  36        2S          0.00149   0.00006  -0.00002   0.00000   0.00000
  37 6   H  1S          0.00529  -0.00053   0.00053   0.00001   0.00012
  38        2S          0.00146   0.00007   0.00004   0.00000   0.00001
                          31        32        33        34        35
  31 3   H  1S          0.13328
  32        2S          0.13801   0.32977
  33 4   H  1S          0.00609   0.04482   0.13327
  34        2S          0.04481   0.16526   0.13799   0.32971
  35 5   H  1S          0.00000   0.00000   0.00000   0.00000   0.16135
  36        2S          0.00000   0.00000   0.00000   0.00000   0.02264
  37 6   H  1S          0.00000   0.00000   0.00000   0.00000  -0.00020
  38        2S          0.00000   0.00000   0.00000   0.00000  -0.00015
                          36        37        38
  36        2S          0.01323
  37 6   H  1S         -0.00010   0.16043
  38        2S          0.00202   0.02317   0.01363
     Gross orbital populations:
                           1
   1 1   C  1S          1.99337
   2        2S          0.95074
   3        2PX         0.84311
   4        2PY         0.09487
   5        2PZ         0.37993
   6        3S          0.97725
   7        3PX         0.07969
   8        3PY         0.02823
   9        3PZ         0.16148
  10        4XX        -0.01134
  11        4YY        -0.01698
  12        4ZZ        -0.02433
  13        4XY         0.00969
  14        4XZ         0.01618
  15        4YZ         0.00044
  16 2   N  1S          1.99171
  17        2S          0.79021
  18        2PX         0.86929
  19        2PY         0.81367
  20        2PZ         0.84955
  21        3S          0.80644
  22        3PX         0.30560
  23        3PY         0.51436
  24        3PZ         0.58464
  25        4XX        -0.00112
  26        4YY         0.04468
  27        4ZZ        -0.02418
  28        4XY         0.00093
  29        4XZ         0.00626
  30        4YZ         0.00027
  31 3   H  1S          0.32219
  32        2S          0.67786
  33 4   H  1S          0.32218
  34        2S          0.67777
  35 5   H  1S          0.41195
  36        2S          0.07116
  37 6   H  1S          0.40906
  38        2S          0.07319
          Condensed to atoms (all electrons):
              1          2          3          4          5          6
     1  C    5.170748   0.312903   0.000000   0.000000  -0.000743  -0.000584
     2  N    0.312903   6.716119   0.000000   0.000000   0.262420   0.260871
     3  H    0.000000   0.000000   0.739068   0.260983   0.000000   0.000000
     4  H    0.000000   0.000000   0.260983   0.738965   0.000000   0.000000
     5  H   -0.000743   0.262420   0.000000   0.000000   0.219864   0.001568
     6  H   -0.000584   0.260871   0.000000   0.000000   0.001568   0.220399
 Mulliken atomic charges:
              1
     1  C    0.517676
     2  N   -0.552313
     3  H   -0.000051
     4  H    0.000051
     5  H    0.516891
     6  H    0.517746
 Sum of Mulliken atomic charges =   1.00000
 Mulliken charges with hydrogens summed into heavy atoms:
              1
     1  C    0.517676
     2  N    0.482324
 Sum of Mulliken charges with hydrogens summed into heavy atoms =   1.00000
 Electronic spatial extent (au):  <R**2>=           1000.7291
 Charge=              1.0000 electrons
 Dipole moment (field-independent basis, Debye):
    X=              0.8826    Y=             -0.1134    Z=             -0.2331  Tot=              0.9199
 Quadrupole moment (field-independent basis, Debye-Ang):
   XX=            -12.0380   YY=             -6.8906   ZZ=            -13.4481
   XY=              0.7362   XZ=             -0.2063   YZ=              0.2770
 Traceless Quadrupole moment (field-independent basis, Debye-Ang):
   XX=             -1.2457   YY=              3.9016   ZZ=             -2.6559
   XY=              0.7362   XZ=             -0.2063   YZ=              0.2770
 Octapole moment (field-independent basis, Debye-Ang**2):
  XXX=            103.4105  YYY=            -10.2312  ZZZ=             -6.1295  XYY=             26.5755
  XXY=             -7.5153  XXZ=             -5.0270  XZZ=             29.4052  YZZ=             -2.7883
  YYZ=             -0.3627  XYZ=             -6.5261
 Hexadecapole moment (field-independent basis, Debye-Ang**3):
 XXXX=          -2148.8399 YYYY=            -36.9550 ZZZZ=            -24.2942 XXXY=            194.9601
 XXXZ=            114.5235 YYYX=             94.0741 YYYZ=             -4.5300 ZZZX=             65.9461
 ZZZY=             -8.7052 XXYY=           -263.9362 XXZZ=           -318.7394 YYZZ=             -9.1311
 XXYZ=             65.3675 YYXZ=             -1.4911 ZZXY=             28.8750
 N-N= 2.937681012261D+01 E-N=-2.732255911053D+02  KE= 9.327764471045D+01
 Orbital energies and kinetic energies (alpha):
                                 1                 2
   1         O               -14.809803         21.957061
   2         O               -10.728517         15.892054
   3         O                -1.379485          1.997712
   4         O                -0.981214          1.846461
   5         O                -0.971228          1.358459
   6         O                -0.758075          1.528582
   7         O                -0.714724          1.659256
   8         O                -0.428204          0.399238
   9         V                -0.357010          1.363704
  10         V                -0.284937          1.668233
  11         V                -0.197642          1.230244
  12         V                -0.091573          1.073054
  13         V                -0.083928          0.569059
  14         V                 0.075886          1.767803
  15         V                 0.288018          1.479989
  16         V                 0.311870          1.926415
  17         V                 0.339662          2.008842
  18         V                 0.390433          1.832139
  19         V                 0.438971          2.843890
  20         V                 0.479570          2.578619
  21         V                 0.583100          2.989826
  22         V                 0.614134          2.530108
  23         V                 0.800301          1.851834
  24         V                 0.818746          2.465051
  25         V                 0.836458          1.901147
  26         V                 0.936901          2.228138
  27         V                 1.183407          2.698837
  28         V                 1.224285          2.646526
  29         V                 1.398869          2.788640
  30         V                 1.498111          2.997865
  31         V                 1.564540          3.009079
  32         V                 1.877284          3.601451
  33         V                 2.063475          3.748211
  34         V                 2.097322          3.659576
  35         V                 2.148589          3.645489
  36         V                 2.422065          4.785663
  37         V                 3.434827          9.818005
  38         V                 3.661613          9.614707
 Total kinetic energy from orbitals= 9.327764471045D+01
 Calling FoFJK, ICntrl=      5127 FMM=F ISym2X=0 I1Cent= 0 IOpClX= 0 NMat=1 NMatS=1 NMatT=0.
 FoFJK:  IHMeth= 1 ICntrl=  5127 DoSepK=T KAlg= 1 I1Cent= 0 FoldK=F
 -------------------------------------------------------------------
 Center     Atomic                   Forces (Hartrees/Bohr)
 Number     Number              X              Y              Z
 -------------------------------------------------------------------
      1        6          -0.010751171    0.000891560    0.002318152
      2        7          -0.041679669    0.010264807    0.001890658
      3        1           0.004568442    0.027857123    0.018484356
      4        1          -0.004998483   -0.027799700   -0.018446094
      5        1           0.033768222    0.047947389   -0.005206248
      6        1           0.019092660   -0.059161179    0.000959176
 -------------------------------------------------------------------
 Cartesian Forces:  Max     0.059161179 RMS     0.025360035

 GradGradGradGradGradGradGradGradGradGradGradGradGradGradGradGradGradGrad
 Berny optimization.
 Search for a local minimum.
 Step number   1 out of a maximum of    2
 All quantities printed in internal units (Hartrees-Bohrs-Radians)
 Second derivative matrix not updated -- first step.
 The second derivative matrix:
                          X1        Y1        Z1        X2        Y2
           X1           0.65758
           Y1          -0.08785   0.06574
           Z1          -0.06406   0.00669   0.01384
           X2          -0.65833   0.08517   0.06039   0.93241
           Y2           0.08535  -0.08337  -0.00617  -0.03220   0.78093
           Z2           0.06237  -0.00645  -0.03143  -0.10083  -0.02380
           X3           0.00000   0.00000   0.00000   0.00000   0.00000
           Y3           0.00000   0.00000   0.00000   0.00000   0.00000
           Z3           0.00000   0.00000   0.00000   0.00000   0.00000
           X4           0.00000   0.00000   0.00000   0.00000   0.00000
           Y4           0.00000   0.00000   0.00000   0.00000   0.00000
           Z4           0.00000   0.00000   0.00000   0.00000   0.00000
           X5           0.00458   0.03150   0.00014  -0.12203   0.02753
           Y5           0.00069   0.00471   0.00003   0.03775  -0.37026
           Z5           0.00047  -0.00286   0.00897   0.01475   0.00111
           X6          -0.00383  -0.02882   0.00354  -0.15206  -0.08068
           Y6           0.00182   0.01292  -0.00055  -0.09072  -0.32729
           Z6           0.00122   0.00261   0.00862   0.02569   0.02886
                          Z2        X3        Y3        Z3        X4
           Z2           0.10130
           X3           0.00000   1.00000
           Y3           0.00000   0.00000   1.00000
           Z3           0.00000   0.00000   0.00000   1.00000
           X4           0.00000   0.00000   0.00000   0.00000   1.00000
           Y4           0.00000   0.00000   0.00000   0.00000   0.00000
           Z4           0.00000   0.00000   0.00000   0.00000   0.00000
           X5           0.01451   0.00000   0.00000   0.00000   0.00000
           Y5           0.00265   0.00000   0.00000   0.00000   0.00000
           Z5          -0.03351   0.00000   0.00000   0.00000   0.00000
           X6           0.02395   0.00000   0.00000   0.00000   0.00000
           Y6           0.02760   0.00000   0.00000   0.00000   0.00000
           Z6          -0.03636   0.00000   0.00000   0.00000   0.00000
                          Y4        Z4        X5        Y5        Z5
           Y4           1.00000
           Z4           0.00000   1.00000
           X5           0.00000   0.00000   0.08332
           Y5           0.00000   0.00000  -0.04353   0.36787
           Z5           0.00000   0.00000  -0.00985  -0.00198   0.01263
           X6           0.00000   0.00000   0.03413   0.00509  -0.00537
           Y6           0.00000   0.00000  -0.01550  -0.00231   0.00373
           Z6           0.00000   0.00000  -0.00480  -0.00070   0.01190
                          X6        Y6        Z6
           X6           0.12176
           Y6           0.10440   0.31668
           Z6          -0.02211  -0.03077   0.01585
     Eigenvalues ---    0.02011   0.02738   0.11109   0.11974   0.17074
     Eigenvalues ---    0.37978   0.63924   0.88608   0.98384   1.00000
     Eigenvalues ---    1.00284   1.51489
 Quadratic step=4.637D-01 exceeds max=3.000D-01 adjusted using Lamda=-9.878D-02.
 Angle between NR and scaled steps=   7.07 degrees.
 Angle between quadratic step and forces=  27.62 degrees.
 Linear search not attempted -- first point.
 TrRot= -0.027703  0.004668  0.000944  0.000031  0.000072  0.000031
 Variable       Old X    -DE/DX   Delta X   Delta X   Delta X     New X
                                 (Linear)    (Quad)   (Total)
    X1       -1.83146  -0.01075   0.00000  -0.05341  -0.08111  -1.91258
    Y1        0.26672   0.00089   0.00000   0.00519   0.00974   0.27645
    Z1        0.16688   0.00232   0.00000   0.01151   0.01259   0.17947
    X2        0.58530  -0.04168   0.00000  -0.05404  -0.08174   0.50356
    Y2       -0.08345   0.01026   0.00000   0.01089   0.01559  -0.06786
    Z2       -0.07026   0.00189   0.00000  -0.00488  -0.00397  -0.07423
    X3      -21.64856   0.00457   0.00000   0.00617  -0.02158 -21.67014
    Y3        1.51870   0.02786   0.00000   0.02528   0.02861   1.54732
    Z3        0.71764   0.01848   0.00000   0.01631   0.01880   0.73644
    X4      -21.23352  -0.00500   0.00000  -0.00254  -0.03032 -21.26385
    Y4        3.93287  -0.02780   0.00000  -0.02536  -0.02201   3.91086
    Z4        2.31959  -0.01845   0.00000  -0.01732  -0.01485   2.30474
    X5        0.88384   0.03377   0.00000   0.15384   0.12625   1.01008
    Y5       -2.08017   0.04795   0.00000   0.12723   0.13196  -1.94821
    Z5       -0.06747  -0.00521   0.00000  -0.01525  -0.01438  -0.08186
    X6        1.39582   0.01909   0.00000   0.11633   0.08851   1.48433
    Y6        1.76715  -0.05916   0.00000  -0.16866  -0.16390   1.60325
    Z6       -0.28409   0.00096   0.00000   0.00098   0.00182  -0.28227
         Item               Value     Threshold  Converged?
 Maximum Force            0.059161     0.000450     NO 
 RMS     Force            0.025360     0.000300     NO 
 Maximum Displacement     0.163900     0.001800     NO 
 RMS     Displacement     0.068838     0.001200     NO 
 Predicted change in Energy=-1.806502D-02
 GradGradGradGradGradGradGradGradGradGradGradGradGradGradGradGradGradGrad


 Test job not archived.
 1\1\GINC-EAM\Force\RTD-CAM-B3LYP-FC\6-31G(d)\C1H4N1(1+)\DULIKAI\06-Jan
 -2014\0\\# force td(singlet, root=1, nstates=2) cam-b3lyp/6-31g* scf=(
 tight,maxcycle=10000) iop(9/40=20) nosymm pop=full\\[0] [0]\\1,1\C,-0.
 9691691,0.1411401,0.0883089\N,0.3097272,-0.0441613,-0.0371799\H,-11.45
 59266,0.8036633,0.3797597\H,-11.2362971,2.081185,1.2274741\H,0.467706,
 -1.1007779,-0.0357055\H,0.7386343,0.9351336,-0.1503345\\Version=EM64L-
 G09RevA.01\HF=-94.5932386\RMSD=5.187e-09\RMSF=2.536e-02\Dipole=-17.357
 614,2.1793535,1.1660845\PG=C01 [X(C1H4N1)]\\@


 IT MATTERS NOT HOW DEEP YOU PLOW,
 BUT HOW LONG YOU STAY IN THE FURROW.
 Job cpu time:  0 days  0 hours  0 minutes 25.6 seconds.
 File lengths (MBytes):  RWF=      9 Int=      0 D2E=      0 Chk=      1 Scr=      1
 Normal termination of Gaussian 09 at Mon Jan  6 13:31:03 2014.
