 Entering Gaussian System, Link 0=g09
 Input=gaussian.gjf
 Output=gaussian.log
 Initial command:
 /opt/g09_D01_em64t/g09/l1.exe "/tmp/Gau-7763.inp" -scrdir="/tmp/"
 Entering Link 1 = /opt/g09_D01_em64t/g09/l1.exe PID=      7764.
  
 Copyright (c) 1988,1990,1992,1993,1995,1998,2003,2009,2013,
            Gaussian, Inc.  All Rights Reserved.
  
 This is part of the Gaussian(R) 09 program.  It is based on
 the Gaussian(R) 03 system (copyright 2003, Gaussian, Inc.),
 the Gaussian(R) 98 system (copyright 1998, Gaussian, Inc.),
 the Gaussian(R) 94 system (copyright 1995, Gaussian, Inc.),
 the Gaussian 92(TM) system (copyright 1992, Gaussian, Inc.),
 the Gaussian 90(TM) system (copyright 1990, Gaussian, Inc.),
 the Gaussian 88(TM) system (copyright 1988, Gaussian, Inc.),
 the Gaussian 86(TM) system (copyright 1986, Carnegie Mellon
 University), and the Gaussian 82(TM) system (copyright 1983,
 Carnegie Mellon University). Gaussian is a federally registered
 trademark of Gaussian, Inc.
  
 This software contains proprietary and confidential information,
 including trade secrets, belonging to Gaussian, Inc.
  
 This software is provided under written license and may be
 used, copied, transmitted, or stored only in accord with that
 written license.
  
 The following legend is applicable only to US Government
 contracts under FAR:
  
                    RESTRICTED RIGHTS LEGEND
  
 Use, reproduction and disclosure by the US Government is
 subject to restrictions as set forth in subparagraphs (a)
 and (c) of the Commercial Computer Software - Restricted
 Rights clause in FAR 52.227-19.
  
 Gaussian, Inc.
 340 Quinnipiac St., Bldg. 40, Wallingford CT 06492
  
  
 ---------------------------------------------------------------
 Warning -- This program may not be used in any manner that
 competes with the business of Gaussian, Inc. or will provide
 assistance to any competitor of Gaussian, Inc.  The licensee
 of this program is prohibited from giving any competitor of
 Gaussian, Inc. access to this program.  By using this program,
 the user acknowledges that Gaussian, Inc. is engaged in the
 business of creating and licensing software in the field of
 computational chemistry and represents and warrants to the
 licensee that it is not a competitor of Gaussian, Inc. and that
 it will not use this program in any manner prohibited above.
 ---------------------------------------------------------------
  

 Cite this work as:
 Gaussian 09, Revision D.01,
 M. J. Frisch, G. W. Trucks, H. B. Schlegel, G. E. Scuseria, 
 M. A. Robb, J. R. Cheeseman, G. Scalmani, V. Barone, B. Mennucci, 
 G. A. Petersson, H. Nakatsuji, M. Caricato, X. Li, H. P. Hratchian, 
 A. F. Izmaylov, J. Bloino, G. Zheng, J. L. Sonnenberg, M. Hada, 
 M. Ehara, K. Toyota, R. Fukuda, J. Hasegawa, M. Ishida, T. Nakajima, 
 Y. Honda, O. Kitao, H. Nakai, T. Vreven, J. A. Montgomery, Jr., 
 J. E. Peralta, F. Ogliaro, M. Bearpark, J. J. Heyd, E. Brothers, 
 K. N. Kudin, V. N. Staroverov, T. Keith, R. Kobayashi, J. Normand, 
 K. Raghavachari, A. Rendell, J. C. Burant, S. S. Iyengar, J. Tomasi, 
 M. Cossi, N. Rega, J. M. Millam, M. Klene, J. E. Knox, J. B. Cross, 
 V. Bakken, C. Adamo, J. Jaramillo, R. Gomperts, R. E. Stratmann, 
 O. Yazyev, A. J. Austin, R. Cammi, C. Pomelli, J. W. Ochterski, 
 R. L. Martin, K. Morokuma, V. G. Zakrzewski, G. A. Voth, 
 P. Salvador, J. J. Dannenberg, S. Dapprich, A. D. Daniels, 
 O. Farkas, J. B. Foresman, J. V. Ortiz, J. Cioslowski, 
 and D. J. Fox, Gaussian, Inc., Wallingford CT, 2013.
 
 ******************************************
 Gaussian 09:  EM64L-G09RevD.01 24-Apr-2013
                30-Apr-2014 
 ******************************************
 %chk=gaussian.chk
 %mem=1GB
 %nproc=2
 Will use up to    2 processors via shared memory.
 %nproclinda=1
 Will use up to    1 processors via Linda.
 ----------------------------------------------------------------------
 # b3lyp/6-31g* scf=(tight,maxcycle=10000) iop(9/40=20) nosymm pop=full
 ----------------------------------------------------------------------
 1/38=1/1;
 2/12=2,15=1,17=6,18=5,40=1/2;
 3/5=1,6=6,7=1,11=2,16=1,25=1,30=1,74=-5/1,2,3;
 4//1;
 5/5=2,7=10000,32=2,38=5/2;
 6/7=3,28=1/1;
 99/5=1,9=1/99;
 -------
 [0] [0]
 -------
 Symbolic Z-matrix:
 Charge =  1 Multiplicity = 1
 c                    -2.39686   0.38312   0.11121 
 n                    -1.24301   0.20673   0.16045 
 h                    -2.84455   0.14332   1.10134 
 h                    -2.40351  -0.09931  -0.82372 
 h                    -0.36219   0.36384  -0.69487 
 h                    -1.01781   0.96136   0.8666 
 
                          Input orientation:                          
 ---------------------------------------------------------------------
 Center     Atomic      Atomic             Coordinates (Angstroms)
 Number     Number       Type             X           Y           Z
 ---------------------------------------------------------------------
      1          6           0       -2.396865    0.383122    0.111211
      2          7           0       -1.243005    0.206726    0.160448
      3          1           0       -2.844547    0.143319    1.101336
      4          1           0       -2.403508   -0.099306   -0.823720
      5          1           0       -0.362192    0.363838   -0.694866
      6          1           0       -1.017807    0.961356    0.866597
 ---------------------------------------------------------------------
                    Distance matrix (angstroms):
                    1          2          3          4          5
     1  C    0.000000
     2  N    1.168303   0.000000
     3  H    1.112777   1.858555   0.000000
     4  H    1.052081   1.552098   1.989779   0.000000
     5  H    2.188612   1.237771   3.071979   2.097159   0.000000
     6  H    1.675340   1.057746   2.015259   2.429473   1.795835
                    6
     6  H    0.000000
 Symmetry turned off by external request.
 Stoichiometry    CH4N(1+)
 Framework group  C1[X(CH4N)]
 Deg. of freedom    12
 Full point group                 C1      NOp   1
 Rotational constants (GHZ):    129.8383732     37.5016238     31.5703588
 Standard basis: 6-31G(d) (6D, 7F)
    38 basis functions,    72 primitive gaussians,    38 cartesian basis functions
     8 alpha electrons        8 beta electrons
       nuclear repulsion energy        40.5807312631 Hartrees.
 NAtoms=    6 NActive=    6 NUniq=    6 SFac= 1.00D+00 NAtFMM=   60 NAOKFM=F Big=F
 Integral buffers will be    131072 words long.
 Raffenetti 2 integral format.
 Two-electron integral symmetry is turned off.
 One-electron integrals computed using PRISM.
 NBasis=    38 RedAO= T EigKep=  4.78D-03  NBF=    38
 NBsUse=    38 1.00D-06 EigRej= -1.00D+00 NBFU=    38
 ExpMin= 1.61D-01 ExpMax= 4.17D+03 ExpMxC= 6.27D+02 IAcc=1 IRadAn=         1 AccDes= 0.00D+00
 Harris functional with IExCor=  402 and IRadAn=       1 diagonalized for initial guess.
 HarFok:  IExCor=  402 AccDes= 0.00D+00 IRadAn=         1 IDoV= 1 UseB2=F ITyADJ=14
 ICtDFT=  3500011 ScaDFX=  1.000000  1.000000  1.000000  1.000000
 FoFCou: FMM=F IPFlag=           0 FMFlag=      100000 FMFlg1=           0
         NFxFlg=           0 DoJE=T BraDBF=F KetDBF=T FulRan=T
         wScrn=  0.000000 ICntrl=     500 IOpCl=  0 I1Cent=   200000004 NGrid=           0
         NMat0=    1 NMatS0=      1 NMatT0=    0 NMatD0=    1 NMtDS0=    0 NMtDT0=    0
 Symmetry not used in FoFCou.
 Keep R1 ints in memory in canonical form, NReq=101191747.
 Requested convergence on RMS density matrix=1.00D-08 within**** cycles.
 Requested convergence on MAX density matrix=1.00D-06.
 Requested convergence on             energy=1.00D-06.
 No special actions if energy rises.
 Integral accuracy reduced to 1.0D-05 until final iterations.
 Initial convergence to 1.0D-05 achieved.  Increase integral accuracy.
 SCF Done:  E(RB3LYP) =  -94.8022337505     A.U. after   12 cycles
            NFock= 12  Conv=0.32D-08     -V/T= 2.0045

 **********************************************************************

            Population analysis using the SCF density.

 **********************************************************************

 Alpha  occ. eigenvalues --  -14.69850 -10.53566  -1.31318  -0.93110  -0.86621
 Alpha  occ. eigenvalues --   -0.75207  -0.71156  -0.60801
 Alpha virt. eigenvalues --   -0.34385  -0.23454  -0.17881  -0.11303  -0.06035
 Alpha virt. eigenvalues --    0.05585   0.25492   0.30215   0.31876   0.40863
 Alpha virt. eigenvalues --    0.43339   0.53380   0.56254   0.57052   0.61456
 Alpha virt. eigenvalues --    0.66905   0.75951   0.99574   1.17510   1.31502
 Alpha virt. eigenvalues --    1.36493   1.68204   1.81267   2.01109   2.07987
 Alpha virt. eigenvalues --    2.21976   2.26695   2.56486   3.44841   3.80827
     Molecular Orbital Coefficients:
                           1         2         3         4         5
                           O         O         O         O         O
     Eigenvalues --   -14.69850 -10.53566  -1.31318  -0.93110  -0.86621
   1 1   C  1S          0.00012   0.99251  -0.13494   0.12944  -0.04254
   2        2S          0.00026   0.05036   0.25358  -0.26899   0.08249
   3        2PX        -0.00013   0.00193   0.19168   0.01053  -0.02845
   4        2PY         0.00000  -0.00019  -0.03246   0.11585   0.06415
   5        2PZ         0.00001   0.00009   0.00189   0.07193   0.32401
   6        3S         -0.00097  -0.01013   0.08741  -0.24237   0.12991
   7        3PX        -0.00054  -0.00085  -0.01235  -0.00057   0.00753
   8        3PY         0.00012   0.00090  -0.00039   0.02451   0.01873
   9        3PZ         0.00002  -0.00031   0.01781   0.02083   0.09888
  10        4XX        -0.00052  -0.00913   0.01626   0.01517  -0.00198
  11        4YY         0.00003  -0.01032  -0.01647   0.00465  -0.00728
  12        4ZZ         0.00006  -0.01000  -0.00794  -0.01159   0.00407
  13        4XY         0.00007  -0.00012  -0.00492   0.00973   0.00861
  14        4XZ        -0.00001  -0.00002  -0.00077   0.01049   0.01685
  15        4YZ         0.00000   0.00013   0.00334  -0.00636  -0.01211
  16 2   N  1S          0.99261  -0.00064  -0.18486  -0.08460   0.03699
  17        2S          0.03505  -0.00020   0.37410   0.18282  -0.07095
  18        2PX        -0.00080   0.00039  -0.14856   0.31761  -0.11301
  19        2PY         0.00052  -0.00005   0.06186   0.14622   0.11263
  20        2PZ        -0.00016   0.00007   0.00094   0.09589   0.34575
  21        3S          0.00489   0.00125   0.34582   0.30408  -0.17349
  22        3PX        -0.00026   0.00029  -0.02741   0.12657  -0.04763
  23        3PY        -0.00002  -0.00056   0.03131   0.08556   0.04900
  24        3PZ        -0.00005  -0.00018  -0.01155   0.03479   0.19099
  25        4XX        -0.00795  -0.00039   0.00781  -0.01812  -0.00023
  26        4YY        -0.00850  -0.00014  -0.00785   0.01161   0.01300
  27        4ZZ        -0.00849  -0.00025  -0.00600   0.00809  -0.00505
  28        4XY        -0.00010   0.00011  -0.00263   0.00742  -0.00873
  29        4XZ         0.00004  -0.00011  -0.00173  -0.01115  -0.00768
  30        4YZ         0.00000  -0.00014   0.00811   0.01136   0.01406
  31 3   H  1S         -0.00006  -0.00021   0.03858  -0.08353   0.15279
  32        2S         -0.00005   0.00210  -0.01330  -0.01755   0.04557
  33 4   H  1S         -0.00003  -0.00038   0.06494  -0.14960  -0.12639
  34        2S         -0.00008   0.00212   0.00264  -0.02689  -0.04356
  35 5   H  1S          0.00021   0.00001   0.04279   0.11464  -0.14356
  36        2S         -0.00042  -0.00017  -0.00912   0.02995  -0.04642
  37 6   H  1S          0.00031   0.00027   0.09346   0.17433   0.11856
  38        2S         -0.00042   0.00077  -0.01523   0.03870   0.03143
                           6         7         8         9        10
                           O         O         O         V         V
     Eigenvalues --    -0.75207  -0.71156  -0.60801  -0.34385  -0.23454
   1 1   C  1S          0.04918  -0.06609   0.01166  -0.04736  -0.02297
   2        2S         -0.09714   0.13630  -0.02495   0.09095   0.04482
   3        2PX         0.40870  -0.12593  -0.12024  -0.07679   0.07455
   4        2PY         0.07665   0.26314  -0.16900   0.48549   0.06979
   5        2PZ        -0.10230  -0.18099  -0.30578  -0.07208   0.05262
   6        3S         -0.21320   0.20383  -0.01245   0.34401   0.10547
   7        3PX         0.08951  -0.03035  -0.03553  -0.05013   0.10494
   8        3PY         0.03845   0.10932  -0.09613   0.48001   0.16343
   9        3PZ        -0.04935  -0.06586  -0.16315  -0.06041   0.06898
  10        4XX         0.02675  -0.01008  -0.01251  -0.00128  -0.01780
  11        4YY        -0.00715  -0.00762   0.01082   0.00226   0.00341
  12        4ZZ        -0.03048   0.01028   0.01110  -0.00903   0.00467
  13        4XY        -0.00235   0.03172  -0.00411  -0.00919  -0.00532
  14        4XZ         0.01271  -0.00884   0.02152   0.00522   0.02909
  15        4YZ         0.00214   0.01085   0.01613  -0.00248   0.00144
  16 2   N  1S         -0.00460   0.06523   0.00066  -0.04313   0.08735
  17        2S          0.01184  -0.15487   0.00466   0.09776  -0.17544
  18        2PX        -0.35368   0.06140   0.12069   0.08747  -0.20851
  19        2PY         0.13759   0.43145  -0.05921  -0.33537  -0.11942
  20        2PZ         0.02890  -0.09435   0.37238   0.08323   0.29599
  21        3S         -0.02784  -0.21264  -0.01169   0.30220  -0.87384
  22        3PX        -0.16280   0.02428   0.05834   0.07326  -0.27451
  23        3PY         0.06272   0.26266  -0.04642  -0.36335  -0.19766
  24        3PZ         0.02289  -0.06067   0.26559   0.08883   0.38362
  25        4XX        -0.00241  -0.00675  -0.01022  -0.00648   0.02807
  26        4YY         0.00347   0.02058   0.00854  -0.00494  -0.00081
  27        4ZZ        -0.01267  -0.00045   0.00661  -0.00503   0.01323
  28        4XY        -0.01763  -0.01736   0.01703  -0.02195  -0.00836
  29        4XZ         0.01406   0.01008   0.02239   0.00154  -0.02080
  30        4YZ         0.00014  -0.00108   0.02342  -0.00422   0.00240
  31 3   H  1S         -0.21870  -0.00784  -0.14356  -0.11065  -0.10257
  32        2S         -0.12222  -0.00311  -0.10125  -0.15264  -0.26181
  33 4   H  1S         -0.06536   0.09959   0.23017  -0.08504   0.04464
  34        2S         -0.05246   0.06187   0.17500  -0.09332   0.27241
  35 5   H  1S         -0.14107   0.01294  -0.16145  -0.09336   0.27333
  36        2S         -0.08837   0.00461  -0.14106  -0.18203   1.10571
  37 6   H  1S          0.00494   0.09765   0.19045  -0.10820  -0.00316
  38        2S         -0.01308   0.05949   0.16843  -0.15876   0.13352
                          11        12        13        14        15
                           V         V         V         V         V
     Eigenvalues --    -0.17881  -0.11303  -0.06035   0.05585   0.25492
   1 1   C  1S          0.06998  -0.08228   0.00783  -0.08304   0.01135
   2        2S         -0.16853   0.15897   0.00040   0.06354  -0.21071
   3        2PX         0.10143  -0.18193   0.09725   0.03510  -0.33943
   4        2PY         0.10423  -0.19449  -0.01867   0.04055  -0.73232
   5        2PZ        -0.03685  -0.03544  -0.45681  -0.02769   0.00464
   6        3S         -0.75024   1.29371  -0.02165   3.67562  -0.89220
   7        3PX         0.30843  -0.37941   0.23379   2.47335   0.04807
   8        3PY         0.35392  -0.37956  -0.14320  -0.56729   1.09259
   9        3PZ         0.06738  -0.03889  -1.56020  -0.04733  -0.01122
  10        4XX        -0.01026  -0.00093   0.00869  -0.03241  -0.05213
  11        4YY         0.00748   0.01410  -0.00723   0.00506  -0.01307
  12        4ZZ         0.01395  -0.02882  -0.00177   0.04036   0.03625
  13        4XY        -0.00643  -0.01254  -0.00509   0.01148  -0.03289
  14        4XZ        -0.01586  -0.00627  -0.01310  -0.01110   0.00196
  15        4YZ         0.01242   0.00346  -0.01806   0.00113   0.00308
  16 2   N  1S          0.04752   0.02777   0.00307   0.07379  -0.03042
  17        2S         -0.10296  -0.02508   0.00360  -0.08063   0.04638
  18        2PX        -0.04030  -0.12324  -0.08201   0.25889   0.16753
  19        2PY        -0.22754  -0.14280  -0.02018   0.03485  -0.19813
  20        2PZ        -0.23950  -0.20071   0.10420   0.00943   0.20223
  21        3S         -0.67077  -0.47787  -0.14935  -2.94375   0.74237
  22        3PX        -0.15353  -0.08627  -0.06895   1.59507  -0.89258
  23        3PY        -0.49356  -0.18849  -0.02550  -0.13316   0.14286
  24        3PZ        -0.41859  -0.39049   0.47208   0.07244  -0.14676
  25        4XX        -0.00944   0.02017   0.00718   0.00534   0.00840
  26        4YY         0.00587   0.01232  -0.00702   0.02695  -0.00664
  27        4ZZ         0.02059  -0.00659   0.00073   0.01763   0.03311
  28        4XY        -0.00015   0.01831   0.00011  -0.00183   0.06222
  29        4XZ         0.02019   0.00629   0.01544  -0.00012  -0.00033
  30        4YZ         0.00568   0.00000  -0.02374  -0.01827   0.01834
  31 3   H  1S          0.07847  -0.12604   0.07243   0.09643   0.12188
  32        2S          0.63371  -0.92952   1.65521  -0.26383   0.19505
  33 4   H  1S          0.05353  -0.14856  -0.07655   0.12691   0.15460
  34        2S          0.48362  -1.24377  -1.60031  -0.84347  -0.01419
  35 5   H  1S         -0.08846   0.02186   0.04109  -0.00712  -0.00074
  36        2S         -0.17027  -0.01445   0.41174  -0.32551   0.20655
  37 6   H  1S          0.16266   0.12652  -0.06084  -0.07086   0.15463
  38        2S          1.18218   1.03470  -0.03523  -0.34597  -0.45202
                          16        17        18        19        20
                           V         V         V         V         V
     Eigenvalues --     0.30215   0.31876   0.40863   0.43339   0.53380
   1 1   C  1S          0.01013   0.01132  -0.01479  -0.05463  -0.05617
   2        2S          0.23079   0.30055   0.05123  -0.71160  -0.38074
   3        2PX         0.65918   0.16698   0.03407  -0.04931   0.31429
   4        2PY        -0.49282   0.05462   0.37335  -0.20371   0.03336
   5        2PZ         0.23583  -0.67572   0.18491   0.05457  -0.19755
   6        3S          0.89482  -0.91485  -0.53114   2.06724   0.49089
   7        3PX         0.01187  -0.75012  -0.16283   0.69783  -0.58423
   8        3PY         0.48309   0.35933  -0.71332  -0.05548  -0.34661
   9        3PZ        -0.20875   2.20498  -0.53911  -0.11164   0.77579
  10        4XX        -0.04030  -0.01684  -0.07250  -0.04931  -0.15839
  11        4YY         0.00091   0.01030   0.02291   0.05831   0.07934
  12        4ZZ         0.04151   0.04709   0.03883  -0.17596  -0.05125
  13        4XY        -0.00286  -0.00306  -0.03370   0.02322   0.04553
  14        4XZ        -0.00130   0.02863   0.04062   0.10076   0.01655
  15        4YZ         0.00657   0.10844  -0.00896  -0.01693   0.03525
  16 2   N  1S          0.04306   0.01568   0.00101   0.01661  -0.00477
  17        2S          0.05413  -0.01736  -0.03162  -0.21249   0.35904
  18        2PX        -0.02565  -0.00504   0.05427   0.03200   0.63427
  19        2PY        -0.01633   0.09514  -0.70806   0.29935  -0.13866
  20        2PZ        -0.03643   0.17946   0.25589   0.10075  -0.06817
  21        3S         -0.82646   0.69361   0.45960  -0.62678  -0.68697
  22        3PX         1.29639  -0.08431  -0.24385   0.33748  -0.91441
  23        3PY        -0.07219  -0.20173   1.01982  -0.33049   0.40902
  24        3PZ         0.14431  -0.69317  -0.27287  -0.23397   0.09988
  25        4XX         0.15660   0.06152   0.06850  -0.04588   0.17099
  26        4YY        -0.04762  -0.04323  -0.03302  -0.00101   0.08737
  27        4ZZ        -0.02507   0.02888   0.02935  -0.01670  -0.01583
  28        4XY         0.01119  -0.01016  -0.00237   0.02986  -0.03192
  29        4XZ        -0.02193   0.02300  -0.08771  -0.12712   0.04103
  30        4YZ        -0.04086   0.05605  -0.02036  -0.05161  -0.06331
  31 3   H  1S          0.06257  -0.12447  -0.00561  -0.68409  -0.31073
  32        2S         -0.01823  -0.84602   0.37096   0.38488  -0.60529
  33 4   H  1S          0.14309   0.46089   0.07916  -0.31624   0.01219
  34        2S          0.13618   0.82745  -0.33465  -0.29023   0.02556
  35 5   H  1S          0.14281   0.37381   0.54511   0.51792  -0.47927
  36        2S         -0.60894  -0.42275  -0.72511  -0.78884   1.03938
  37 6   H  1S         -0.36919   0.14672  -0.07599  -0.10622  -0.44776
  38        2S          0.30481  -0.06887   0.20986   0.04513   0.38475
                          21        22        23        24        25
                           V         V         V         V         V
     Eigenvalues --     0.56254   0.57052   0.61456   0.66905   0.75951
   1 1   C  1S         -0.03714  -0.00704  -0.00564  -0.03058   0.05058
   2        2S         -0.76479  -0.51081  -0.08162   0.87066  -0.94851
   3        2PX         0.46671   0.43823   0.17407   0.02602  -0.25426
   4        2PY        -0.05914   0.15553   0.18042  -0.11549   0.11338
   5        2PZ        -0.30682   0.20539   0.60907   0.32826   0.17953
   6        3S          2.96974   1.87501  -1.37278  -0.40023   2.58706
   7        3PX         0.36583  -0.30318  -0.99186   0.70991   0.55749
   8        3PY        -0.26904  -0.44027   0.11706   0.06515  -0.44870
   9        3PZ         0.71518  -0.22105  -1.53886  -0.10646   0.41096
  10        4XX        -0.09174  -0.06178  -0.13828   0.03759   0.12040
  11        4YY         0.03273   0.00454  -0.02088   0.14502  -0.07922
  12        4ZZ        -0.07788  -0.02556   0.14168  -0.10107  -0.07640
  13        4XY        -0.01497   0.04896   0.01188  -0.02749  -0.05599
  14        4XZ        -0.04867  -0.00880   0.01419   0.05577   0.01634
  15        4YZ        -0.03077  -0.00811   0.10603   0.11525   0.18187
  16 2   N  1S          0.03904   0.01475   0.00765   0.03855  -0.05164
  17        2S         -0.35693  -0.15118  -0.28190  -0.03283  -0.02811
  18        2PX        -0.06961   0.06318   0.34458  -0.02612  -0.56862
  19        2PY        -0.39965   0.16547   0.17897  -0.20478  -0.17330
  20        2PZ        -0.35150   0.74105  -0.41269   0.06494  -0.05348
  21        3S         -0.46451  -0.32074   1.57732  -0.67859  -0.23942
  22        3PX         0.96690   0.29348  -1.53166   1.01791   1.20936
  23        3PY         0.54894  -0.53502  -0.44030   0.17346   0.63532
  24        3PZ         0.51808  -1.50152   0.67215  -0.40745   0.01783
  25        4XX        -0.04202  -0.01719   0.03470   0.06788  -0.22409
  26        4YY         0.01504   0.05514  -0.09090   0.05175   0.06738
  27        4ZZ        -0.06851  -0.10122   0.03338  -0.09964  -0.02262
  28        4XY         0.02547  -0.03450  -0.03101   0.01570   0.03736
  29        4XZ         0.05765   0.05524  -0.06276   0.05787   0.03021
  30        4YZ         0.08072   0.06613   0.09527   0.15175  -0.05897
  31 3   H  1S          0.13794   0.25825  -0.10141  -0.80271  -0.25184
  32        2S         -1.01408  -0.49899   0.71256   1.41217  -0.36695
  33 4   H  1S         -0.26989   0.10233   0.65969  -0.02202   0.73014
  34        2S          0.16124  -1.30770  -1.53318   0.20695  -0.84159
  35 5   H  1S         -0.01409  -0.28783   0.19969  -0.44473  -0.34086
  36        2S          0.04176  -0.29027   0.51484   0.01140  -0.08867
  37 6   H  1S          0.67097   0.20294   0.33804   0.44118  -0.35620
  38        2S         -1.57217   0.70559   0.02876  -0.63038  -0.59547
                          26        27        28        29        30
                           V         V         V         V         V
     Eigenvalues --     0.99574   1.17510   1.31502   1.36493   1.68204
   1 1   C  1S         -0.01601  -0.00088   0.02540  -0.02915   0.00282
   2        2S          0.50200  -0.03229   0.20893  -0.25549  -0.00704
   3        2PX        -0.01952   0.02486  -0.00693   0.09272  -0.07612
   4        2PY        -0.11363   0.26313   0.07222   0.02628  -0.00753
   5        2PZ        -0.07271   0.10876  -0.23172  -0.11996  -0.12510
   6        3S         -4.93180   0.10388  -1.47924   1.61640  -1.29675
   7        3PX        -2.31152   0.01817  -0.59125   0.28201  -0.38124
   8        3PY         0.50451  -0.10070   0.18028  -0.36740   0.00797
   9        3PZ         0.49578  -0.04509   0.21623   0.51651  -0.88659
  10        4XX        -0.10128  -0.11271  -0.12415  -0.02430  -0.10476
  11        4YY         0.03805   0.16342   0.01304  -0.37303   0.24777
  12        4ZZ         0.12064  -0.06132   0.14890   0.38604  -0.09266
  13        4XY         0.05842  -0.51006  -0.16272  -0.21180   0.00679
  14        4XZ        -0.12371  -0.22687   0.46579   0.26866   0.21592
  15        4YZ        -0.02488  -0.03074  -0.16071  -0.14598   0.72622
  16 2   N  1S         -0.08867   0.00231  -0.02419  -0.00438  -0.03538
  17        2S         -1.70596   0.06670  -0.31292  -0.17708  -0.42697
  18        2PX         0.13229   0.03332  -0.04797  -0.03145   0.02746
  19        2PY        -0.10257   0.20591   0.04096  -0.00240   0.04272
  20        2PZ         0.07526   0.07008  -0.12532   0.04860  -0.00879
  21        3S          6.50834  -0.19545   1.52894  -0.36182   1.69664
  22        3PX        -1.83898  -0.03957  -0.32619   0.74877  -0.66996
  23        3PY         0.73462  -0.06154   0.11816   0.19901   0.31848
  24        3PZ        -0.07712   0.01591  -0.10951  -0.51112   0.50081
  25        4XX        -0.25094   0.13798   0.03350   0.00860  -0.05865
  26        4YY        -0.23657  -0.10189   0.37741  -0.63831  -0.07999
  27        4ZZ        -0.21250  -0.01016  -0.53057   0.56015   0.05741
  28        4XY        -0.01977   0.55717   0.23696   0.01132   0.14094
  29        4XZ         0.10636   0.20840  -0.42117  -0.14674   0.08870
  30        4YZ        -0.24530  -0.11572   0.01253   0.15462   0.56408
  31 3   H  1S         -0.08705  -0.02732   0.27623  -0.24730   0.56227
  32        2S         -0.00551  -0.00953  -0.06492  -0.37280   0.21200
  33 4   H  1S         -0.01756   0.04567   0.10495  -0.21732  -0.56348
  34        2S          0.76866  -0.04739   0.27036  -0.14243  -0.05915
  35 5   H  1S         -0.23548   0.05680  -0.28313  -0.51509   0.09027
  36        2S         -0.15359   0.01052   0.03638  -0.10104  -0.01412
  37 6   H  1S         -0.38251  -0.04470  -0.05781  -0.03429  -0.68440
  38        2S         -0.30039   0.09303  -0.02763  -0.15306   0.11528
                          31        32        33        34        35
                           V         V         V         V         V
     Eigenvalues --     1.81267   2.01109   2.07987   2.21976   2.26695
   1 1   C  1S         -0.07894   0.00975  -0.07668   0.00051  -0.00561
   2        2S         -0.27571  -0.22947  -0.38109   0.02083  -0.18255
   3        2PX         0.01186  -0.24268  -0.26363   0.02212  -0.17539
   4        2PY        -0.04031   0.02987   0.06865   0.28745  -0.06582
   5        2PZ         0.02948   0.00361  -0.07440   0.12791   0.25424
   6        3S          1.64244  -1.32934  -1.02695  -0.23244  -0.51408
   7        3PX         0.63700  -0.66726  -0.30548  -0.04600  -0.27798
   8        3PY        -0.29311   0.14798   0.07856   0.37302  -0.01869
   9        3PZ        -0.16379   0.39560  -0.23514   0.21096   0.38325
  10        4XX         0.24707  -0.03290   0.65985   0.29926  -0.11330
  11        4YY        -0.95687   0.00194  -0.16627  -0.21265   0.14178
  12        4ZZ         0.53561   0.11194  -0.78191  -0.12620  -0.04462
  13        4XY        -0.11883   0.13369  -0.22823   0.92808  -0.34731
  14        4XZ        -0.10121  -0.28818  -0.06014   0.40994   0.89679
  15        4YZ         0.30811  -0.65922  -0.01420  -0.08596  -0.25404
  16 2   N  1S          0.00097  -0.04051  -0.07695  -0.00143  -0.01597
  17        2S         -0.03446  -0.29245  -0.80613  -0.00002  -0.08168
  18        2PX         0.22926  -0.08868   0.38686   0.01040   0.01358
  19        2PY        -0.04172  -0.01633  -0.05574  -0.14626   0.06588
  20        2PZ         0.04675  -0.03017  -0.01296  -0.06604  -0.15810
  21        3S         -1.01043   1.83649   2.12884   0.06902   0.65569
  22        3PX         0.12485  -0.64650  -1.20600  -0.20234  -0.40416
  23        3PY        -0.01846   0.47351   0.25031  -0.51220   0.16624
  24        3PZ         0.07834   0.37760   0.22563  -0.27165  -0.33154
  25        4XX         0.12190   0.05809   0.52469   0.28686   0.00881
  26        4YY         0.27435   0.09617  -0.52967  -0.32663   0.02822
  27        4ZZ        -0.48039  -0.19813  -0.39750   0.00772  -0.08626
  28        4XY         0.04915   0.07885  -0.22252   0.87721  -0.42485
  29        4XZ         0.21566   0.19477  -0.21392   0.34634   0.99511
  30        4YZ         0.01532   0.86443   0.07825  -0.14294  -0.11357
  31 3   H  1S         -0.36208  -0.32587   0.36554   0.06505   0.14848
  32        2S          0.00999  -0.07842  -0.08200  -0.04958  -0.20477
  33 4   H  1S         -0.51657   0.38359   0.31783   0.20945   0.17868
  34        2S         -0.18575   0.26229  -0.25570  -0.01198   0.07140
  35 5   H  1S          0.25756   0.15721  -0.10027  -0.00674   0.29553
  36        2S         -0.07890   0.01395   0.17506   0.02128  -0.14895
  37 6   H  1S          0.01014  -0.80419  -0.01353   0.17771  -0.03218
  38        2S         -0.06699  -0.02369  -0.18554   0.07106   0.07599
                          36        37        38
                           V         V         V
     Eigenvalues --     2.56486   3.44841   3.80827
   1 1   C  1S         -0.04602  -0.01393  -0.47478
   2        2S         -1.01093   0.61940   2.91551
   3        2PX        -1.28212   0.43245  -0.29143
   4        2PY         0.20089  -0.09914   0.09244
   5        2PZ        -0.08258  -0.01097  -0.00777
   6        3S         -1.99713  -1.70517   2.01660
   7        3PX        -1.04276  -0.87959   0.16872
   8        3PY         0.14583   0.16056  -0.20794
   9        3PZ        -0.17704   0.10267   0.07680
  10        4XX        -1.14544   0.09156  -2.09782
  11        4YY         0.38382  -0.15914  -1.77753
  12        4ZZ         0.54455  -0.21239  -1.80641
  13        4XY         0.30666  -0.07347   0.04811
  14        4XZ        -0.15045   0.03531   0.00028
  15        4YZ         0.12268  -0.00693  -0.03209
  16 2   N  1S         -0.05697  -0.50348   0.06543
  17        2S          0.32737   0.85491   0.15847
  18        2PX        -0.86541   0.27889  -0.38250
  19        2PY         0.15274  -0.10521   0.05840
  20        2PZ        -0.02816   0.00757  -0.02766
  21        3S          2.53950   4.46649  -0.78620
  22        3PX        -1.59495  -0.52199   0.09526
  23        3PY         0.08619   0.38664   0.04060
  24        3PZ        -0.05387  -0.01609   0.02666
  25        4XX         1.28185  -1.79772   0.34670
  26        4YY        -0.62069  -1.54047   0.14780
  27        4ZZ        -0.65488  -1.51131   0.16993
  28        4XY        -0.31897   0.04286  -0.04520
  29        4XZ         0.01256  -0.01750   0.03789
  30        4YZ        -0.10543   0.04760   0.03726
  31 3   H  1S         -0.06162   0.04199   0.13426
  32        2S          0.07880  -0.05224  -0.48868
  33 4   H  1S         -0.20746   0.02317   0.21007
  34        2S         -0.00400   0.09546  -0.48389
  35 5   H  1S         -0.06373   0.03535  -0.00769
  36        2S          0.20980  -0.37860   0.07313
  37 6   H  1S          0.18211   0.01029  -0.07276
  38        2S          0.06678  -0.51373  -0.04650
     Density Matrix:
                           1         2         3         4         5
   1 1   C  1S          2.05756
   2        2S         -0.07328   0.34928
   3        2PX         0.01129  -0.02069   0.47004
   4        2PY         0.00173  -0.00295   0.02336   0.24454
   5        2PZ        -0.00254   0.00152   0.01930   0.05054   0.49377
   6        3S         -0.16569   0.29274  -0.20164   0.03364   0.02710
   7        3PX         0.01285  -0.02869   0.08418   0.01139   0.01915
   8        3PY        -0.00627   0.01692   0.02631   0.10403   0.02702
   9        3PZ        -0.00839   0.01388   0.01712   0.02928   0.20085
  10        4XX        -0.01474  -0.00849   0.03404   0.00523   0.00679
  11        4YY        -0.01366  -0.01432  -0.01237  -0.00755  -0.00652
  12        4ZZ        -0.02515   0.01004  -0.03374  -0.00466  -0.00333
  13        4XY        -0.00163   0.00299  -0.01109   0.02140  -0.00153
  14        4XZ         0.00437  -0.00921   0.00640  -0.00534  -0.00014
  15        4YZ        -0.00211   0.00487  -0.00303  -0.00266  -0.02298
  16 2   N  1S          0.01475  -0.02305  -0.09535   0.03055  -0.01195
  17        2S         -0.02625   0.03491   0.19886  -0.07230   0.03253
  18        2PX         0.09263  -0.18539  -0.37742   0.00603  -0.05177
  19        2PY        -0.03339   0.06512   0.03842   0.31248  -0.05386
  20        2PZ         0.01928  -0.04397  -0.05946  -0.10457   0.03836
  21        3S          0.02772  -0.06867   0.18246  -0.08648   0.02245
  22        3PX         0.02692  -0.05448  -0.15835  -0.00691  -0.02392
  23        3PY        -0.02120   0.03961   0.00729   0.18762  -0.03534
  24        3PZ         0.01198  -0.02732  -0.04444  -0.08487  -0.01642
  25        4XX        -0.00714   0.01277   0.00482  -0.00520   0.00646
  26        4YY         0.00156  -0.00359  -0.00790   0.01335  -0.00331
  27        4ZZ         0.00261  -0.00625  -0.01367  -0.00280  -0.00341
  28        4XY         0.00456  -0.00891  -0.01449  -0.01682  -0.00512
  29        4XZ        -0.00141   0.00274   0.00311  -0.00357  -0.02681
  30        4YZ        -0.00002  -0.00119  -0.00270  -0.00455  -0.00319
  31 3   H  1S         -0.06927   0.13721  -0.13793   0.00861   0.22252
  32        2S         -0.01464   0.03838  -0.08283   0.01649   0.11500
  33 4   H  1S         -0.06048   0.12089  -0.10492  -0.09050  -0.26662
  34        2S         -0.00901   0.02716  -0.09761  -0.04662  -0.15078
  35 5   H  1S          0.01102  -0.02467  -0.05276   0.04512   0.04654
  36        2S          0.00123  -0.00295  -0.03970   0.03813   0.07687
  37 6   H  1S          0.00238  -0.01064  -0.03360   0.03731  -0.05056
  38        2S          0.00775  -0.01293  -0.07299  -0.01364  -0.09598
                           6         7         8         9        10
   6        3S          0.34104
   7        3PX        -0.04956   0.02081
   8        3PY         0.02346   0.00734   0.04724
   9        3PZ         0.01697   0.00778   0.01788   0.08784
  10        4XX        -0.02005   0.00586   0.00290   0.00360   0.00311
  11        4YY        -0.00714  -0.00128  -0.00435  -0.00365  -0.00068
  12        4ZZ         0.02240  -0.00658  -0.00266  -0.00192  -0.00256
  13        4XY         0.01070  -0.00181   0.00835  -0.00067  -0.00056
  14        4XZ        -0.01040   0.00154  -0.00395  -0.00337   0.00055
  15        4YZ         0.00363  -0.00168  -0.00133  -0.00945  -0.00055
  16 2   N  1S          0.04494  -0.00068   0.01141  -0.01110  -0.01133
  17        2S         -0.11002   0.00063  -0.02783   0.02462   0.02160
  18        2PX        -0.03646  -0.07402  -0.02552  -0.02696  -0.01793
  19        2PY         0.08789   0.00265   0.12763  -0.02052   0.00615
  20        2PZ        -0.01654  -0.01049  -0.07235  -0.03953  -0.00430
  21        3S         -0.20657  -0.00276  -0.03824   0.02525   0.02422
  22        3PX        -0.00066  -0.03495  -0.01398  -0.01129  -0.00753
  23        3PY         0.05823  -0.00155   0.07718  -0.01127   0.00265
  24        3PZ        -0.01036  -0.00797  -0.05370  -0.04212  -0.00427
  25        4XX         0.00864   0.00054  -0.00060   0.00394  -0.00002
  26        4YY         0.00309  -0.00085   0.00419  -0.00306  -0.00039
  27        4ZZ        -0.00121  -0.00264  -0.00213  -0.00172  -0.00075
  28        4XY        -0.00631  -0.00339  -0.00838  -0.00304  -0.00085
  29        4XZ         0.00066   0.00026  -0.00185  -0.01207  -0.00037
  30        4YZ        -0.00152  -0.00158  -0.00365  -0.00397   0.00000
  31 3   H  1S          0.18057  -0.02703   0.01067   0.09757  -0.00983
  32        2S          0.07135  -0.01347   0.01025   0.05331  -0.00513
  33 4   H  1S          0.11377  -0.03744  -0.03963  -0.11068  -0.01318
  34        2S          0.04537  -0.02628  -0.02710  -0.06972  -0.00903
  35 5   H  1S         -0.01594  -0.01792   0.02323   0.04281   0.00167
  36        2S          0.01490  -0.00658   0.02107   0.04589  -0.00049
  37 6   H  1S         -0.00441  -0.01930  -0.00197  -0.04146   0.00139
  38        2S          0.01237  -0.01712  -0.01729  -0.05422  -0.00557
                          11        12        13        14        15
  11        4YY         0.00136
  12        4ZZ         0.00082   0.00294
  13        4XY        -0.00041   0.00063   0.00244
  14        4XZ         0.00030  -0.00057  -0.00030   0.00219
  15        4YZ         0.00016   0.00044   0.00018   0.00001   0.00116
  16 2   N  1S          0.00393   0.00696   0.00510  -0.00151   0.00036
  17        2S         -0.00729  -0.01455  -0.01126   0.00411  -0.00127
  18        2PX         0.01621   0.01958   0.01026  -0.00180   0.00142
  19        2PY        -0.01214  -0.00428   0.03139   0.00008   0.00387
  20        2PZ         0.00491   0.00515  -0.00137   0.03210   0.00050
  21        3S         -0.00268  -0.01691  -0.01373   0.00255  -0.00247
  22        3PX         0.00599   0.00883   0.00374  -0.00096   0.00107
  23        3PY        -0.00684  -0.00152   0.01895  -0.00165   0.00241
  24        3PZ         0.00427   0.00419  -0.00206   0.02027   0.00220
  25        4XX        -0.00050   0.00008  -0.00077  -0.00078  -0.00020
  26        4YY         0.00000   0.00036   0.00175   0.00079   0.00022
  27        4ZZ         0.00068   0.00078   0.00010  -0.00002   0.00013
  28        4XY         0.00117   0.00089  -0.00114   0.00046   0.00020
  29        4XZ         0.00020   0.00007   0.00006   0.00065   0.00132
  30        4YZ         0.00016   0.00021   0.00012   0.00173   0.00030
  31 3   H  1S         -0.00413   0.01256   0.00234  -0.00826  -0.00812
  32        2S         -0.00083   0.00609   0.00178  -0.00622  -0.00483
  33 4   H  1S          0.00272   0.01256  -0.00099  -0.00101   0.01471
  34        2S          0.00385   0.00854   0.00143   0.00307   0.00818
  35 5   H  1S          0.00007   0.00078   0.00215  -0.01326  -0.00323
  36        2S         -0.00060   0.00143   0.00174  -0.00932  -0.00415
  37 6   H  1S         -0.00063   0.00137   0.00912   0.01410   0.00382
  38        2S          0.00331   0.00535   0.00390   0.00776   0.00531
                          16        17        18        19        20
  16 2   N  1S          2.06449
  17        2S         -0.12522   0.40756
  18        2PX         0.00266  -0.00531   0.55828
  19        2PY         0.01670  -0.04713  -0.00959   0.49296
  20        2PZ        -0.00339   0.02007   0.04034  -0.01151   0.55428
  21        3S         -0.20994   0.45997   0.12038  -0.09712  -0.03120
  22        3PX        -0.01059   0.02167   0.23153  -0.00786   0.02074
  23        3PY         0.01117  -0.03255   0.01065   0.28934  -0.03015
  24        3PZ         0.00463  -0.00122   0.02283  -0.02573   0.34929
  25        4XX        -0.01649   0.00063  -0.01536  -0.00967  -0.01009
  26        4YY        -0.01232  -0.01028   0.00891   0.02305   0.01388
  27        4ZZ        -0.01631  -0.00151   0.01858  -0.00418   0.00233
  28        4XY        -0.00321   0.00709   0.02192  -0.02196   0.01032
  29        4XZ         0.00326  -0.00686  -0.00814   0.00471   0.00813
  30        4YZ        -0.00398   0.00878   0.00705   0.00382   0.02957
  31 3   H  1S          0.01186  -0.02745   0.02002  -0.03519  -0.02837
  32        2S          0.01175  -0.02572   0.04414  -0.02084  -0.05376
  33 4   H  1S          0.00579  -0.01843   0.02826  -0.02349   0.03288
  34        2S          0.00898  -0.02046   0.07893   0.00088   0.08035
  35 5   H  1S         -0.04265   0.08547   0.15496  -0.00206  -0.20805
  36        2S         -0.00473   0.00585   0.06125  -0.00647  -0.13740
  37 6   H  1S         -0.04173   0.08851   0.11064   0.15232   0.23929
  38        2S          0.00867  -0.01890   0.07922   0.04431   0.14259
                          21        22        23        24        25
  21        3S          0.57660
  22        3PX         0.07191   0.09908
  23        3PY        -0.05742   0.00219   0.17156
  24        3PZ        -0.03478   0.01184  -0.02970   0.22512
  25        4XX        -0.00237  -0.00573  -0.00553  -0.00625   0.00122
  26        4YY        -0.01211   0.00300   0.01323   0.00815  -0.00088
  27        4ZZ         0.00318   0.00774  -0.00193   0.00176  -0.00032
  28        4XY         0.01369   0.00974  -0.01266   0.00758  -0.00033
  29        4XZ        -0.01091  -0.00347   0.00221   0.00764  -0.00028
  30        4YZ         0.00754   0.00373   0.00111   0.01855  -0.00076
  31 3   H  1S         -0.05826   0.01626  -0.01513  -0.03366   0.00765
  32        2S         -0.02518   0.01978  -0.00694  -0.04251   0.00311
  33 4   H  1S         -0.04630   0.02358  -0.01117   0.04700   0.00076
  34        2S         -0.02689   0.03771   0.00097   0.06448  -0.00312
  35 5   H  1S          0.15526   0.06807   0.01232  -0.14164   0.00038
  36        2S          0.03427   0.02504   0.00443  -0.09497   0.00205
  37 6   H  1S          0.08327   0.05307   0.08154   0.14480  -0.01015
  38        2S         -0.02642   0.03444   0.02273   0.09670  -0.00583
                          26        27        28        29        30
  26        4YY         0.00189
  27        4ZZ         0.00030   0.00081
  28        4XY        -0.00056   0.00093   0.00208
  29        4XZ         0.00046  -0.00015  -0.00011   0.00197
  30        4YZ         0.00086   0.00025   0.00071   0.00053   0.00188
  31 3   H  1S         -0.00286   0.00030  -0.00102  -0.01336  -0.00375
  32        2S         -0.00172   0.00118  -0.00002  -0.00830  -0.00410
  33 4   H  1S         -0.00021   0.00268   0.00633   0.01553   0.00465
  34        2S          0.00337   0.00356   0.00601   0.00887   0.00626
  35 5   H  1S         -0.00495   0.00422   0.00301  -0.01143  -0.00837
  36        2S         -0.00319   0.00144  -0.00054  -0.00863  -0.00741
  37 6   H  1S          0.01297   0.00280   0.00295   0.00460   0.01752
  38        2S          0.00720   0.00300   0.00424   0.00708   0.00927
                          31        32        33        34        35
  31 3   H  1S          0.20063
  32        2S          0.09841   0.05553
  33 4   H  1S         -0.04768  -0.03925   0.21948
  34        2S         -0.03689  -0.02609   0.11914   0.07968
  35 5   H  1S          0.04814   0.04885  -0.04576  -0.03354   0.16344
  36        2S          0.05919   0.04510  -0.05088  -0.03715   0.09001
  37 6   H  1S         -0.04406  -0.03818   0.03648   0.05902  -0.04644
  38        2S         -0.04161  -0.02936   0.06959   0.06279  -0.05061
                          36        37        38
  36        2S          0.06172
  37 6   H  1S         -0.05597   0.19803
  38        2S         -0.04498   0.09375   0.06960
    Full Mulliken population analysis:
                           1         2         3         4         5
   1 1   C  1S          2.05756
   2        2S         -0.01605   0.34928
   3        2PX         0.00000   0.00000   0.47004
   4        2PY         0.00000   0.00000   0.00000   0.24454
   5        2PZ         0.00000   0.00000   0.00000   0.00000   0.49377
   6        3S         -0.03053   0.23778   0.00000   0.00000   0.00000
   7        3PX         0.00000   0.00000   0.04796   0.00000   0.00000
   8        3PY         0.00000   0.00000   0.00000   0.05927   0.00000
   9        3PZ         0.00000   0.00000   0.00000   0.00000   0.11443
  10        4XX        -0.00117  -0.00603   0.00000   0.00000   0.00000
  11        4YY        -0.00108  -0.01017   0.00000   0.00000   0.00000
  12        4ZZ        -0.00199   0.00713   0.00000   0.00000   0.00000
  13        4XY         0.00000   0.00000   0.00000   0.00000   0.00000
  14        4XZ         0.00000   0.00000   0.00000   0.00000   0.00000
  15        4YZ         0.00000   0.00000   0.00000   0.00000   0.00000
  16 2   N  1S          0.00000  -0.00074  -0.00598  -0.00029  -0.00003
  17        2S         -0.00058   0.00841   0.06776   0.00377   0.00047
  18        2PX        -0.00434   0.05280   0.12535   0.00043   0.00104
  19        2PY        -0.00024   0.00284   0.00277   0.03992  -0.00017
  20        2PZ        -0.00004   0.00053   0.00119  -0.00032   0.00529
  21        3S          0.00223  -0.02919   0.05632   0.00408   0.00030
  22        3PX        -0.00415   0.03267   0.02409  -0.00049   0.00047
  23        3PY        -0.00050   0.00363   0.00051   0.05566  -0.00011
  24        3PZ        -0.00008   0.00070   0.00087  -0.00025  -0.00503
  25        4XX        -0.00082   0.00554   0.00214   0.00061   0.00021
  26        4YY         0.00001  -0.00058  -0.00174   0.00021  -0.00003
  27        4ZZ         0.00001  -0.00097  -0.00285   0.00009   0.00002
  28        4XY        -0.00014   0.00066   0.00152   0.00430   0.00003
  29        4XZ        -0.00001   0.00006   0.00009   0.00002   0.00741
  30        4YZ         0.00000   0.00000   0.00002   0.00005  -0.00013
  31 3   H  1S         -0.00205   0.03561   0.01970  -0.00066   0.07027
  32        2S         -0.00131   0.01788   0.00884  -0.00094   0.02714
  33 4   H  1S         -0.00233   0.03605   0.00026   0.01633   0.09322
  34        2S         -0.00087   0.01340   0.00016   0.00569   0.03566
  35 5   H  1S          0.00000  -0.00015  -0.00066  -0.00001  -0.00023
  36        2S          0.00002  -0.00029  -0.00385  -0.00004  -0.00295
  37 6   H  1S          0.00000  -0.00053  -0.00244   0.00114  -0.00201
  38        2S          0.00029  -0.00304  -0.01177  -0.00092  -0.00848
                           6         7         8         9        10
   6        3S          0.34104
   7        3PX         0.00000   0.02081
   8        3PY         0.00000   0.00000   0.04724
   9        3PZ         0.00000   0.00000   0.00000   0.08784
  10        4XX        -0.01263   0.00000   0.00000   0.00000   0.00311
  11        4YY        -0.00450   0.00000   0.00000   0.00000  -0.00023
  12        4ZZ         0.01411   0.00000   0.00000   0.00000  -0.00085
  13        4XY         0.00000   0.00000   0.00000   0.00000   0.00000
  14        4XZ         0.00000   0.00000   0.00000   0.00000   0.00000
  15        4YZ         0.00000   0.00000   0.00000   0.00000   0.00000
  16 2   N  1S          0.00295  -0.00008  -0.00020  -0.00005  -0.00102
  17        2S         -0.03973   0.00033   0.00223   0.00055   0.00893
  18        2PX         0.00711   0.00545  -0.00114   0.00034   0.00739
  19        2PY         0.00262   0.00012   0.02694  -0.00004   0.00065
  20        2PZ         0.00014   0.00013  -0.00014  -0.00859   0.00013
  21        3S         -0.12940  -0.00172   0.00365   0.00067   0.01020
  22        3PX         0.00037  -0.00232  -0.00119   0.00027   0.00316
  23        3PY         0.00496  -0.00013   0.04703  -0.00004   0.00027
  24        3PZ         0.00025   0.00019  -0.00019  -0.02617   0.00012
  25        4XX         0.00353   0.00022   0.00006   0.00010  -0.00001
  26        4YY         0.00099  -0.00040  -0.00018  -0.00006  -0.00010
  27        4ZZ        -0.00039  -0.00125   0.00015  -0.00002  -0.00017
  28        4XY         0.00015   0.00003   0.00140   0.00000   0.00011
  29        4XZ         0.00000   0.00000   0.00000   0.00208  -0.00001
  30        4YZ         0.00000   0.00000   0.00003  -0.00010   0.00000
  31 3   H  1S          0.06644   0.00558  -0.00118   0.04454  -0.00161
  32        2S          0.04953   0.00318  -0.00129   0.02780  -0.00183
  33 4   H  1S          0.04463   0.00012   0.00940   0.05087  -0.00172
  34        2S          0.03274   0.00010   0.00716   0.03568  -0.00330
  35 5   H  1S         -0.00105  -0.00299  -0.00004  -0.00283   0.00002
  36        2S          0.00363  -0.00248  -0.00008  -0.00685  -0.00006
  37 6   H  1S         -0.00076  -0.00572  -0.00025  -0.00672   0.00010
  38        2S          0.00541  -0.00783  -0.00332  -0.01359  -0.00123
                          11        12        13        14        15
  11        4YY         0.00136
  12        4ZZ         0.00027   0.00294
  13        4XY         0.00000   0.00000   0.00244
  14        4XZ         0.00000   0.00000   0.00000   0.00219
  15        4YZ         0.00000   0.00000   0.00000   0.00000   0.00116
  16 2   N  1S          0.00001   0.00001  -0.00012  -0.00001   0.00000
  17        2S         -0.00076  -0.00143   0.00094   0.00010   0.00000
  18        2PX        -0.00233  -0.00257   0.00114   0.00006   0.00001
  19        2PY         0.00025  -0.00009   0.00685   0.00000   0.00004
  20        2PZ        -0.00003   0.00003  -0.00001   0.00768  -0.00002
  21        3S         -0.00080  -0.00501   0.00045   0.00002   0.00000
  22        3PX        -0.00284  -0.00415   0.00007   0.00001   0.00000
  23        3PY        -0.00024  -0.00011   0.00394   0.00000   0.00002
  24        3PZ        -0.00009  -0.00004   0.00000   0.00436  -0.00007
  25        4XX        -0.00012   0.00002   0.00010  -0.00003   0.00000
  26        4YY         0.00000   0.00002   0.00008   0.00001   0.00000
  27        4ZZ         0.00004   0.00011  -0.00001   0.00000   0.00000
  28        4XY         0.00005  -0.00004   0.00041   0.00000   0.00000
  29        4XZ         0.00000   0.00000   0.00000  -0.00026   0.00011
  30        4YZ         0.00000   0.00000   0.00000   0.00014   0.00004
  31 3   H  1S         -0.00052   0.00464   0.00012   0.00168   0.00088
  32        2S         -0.00029   0.00248   0.00002   0.00032   0.00013
  33 4   H  1S          0.00056   0.00516   0.00000   0.00000   0.00368
  34        2S          0.00147   0.00365   0.00000   0.00000   0.00045
  35 5   H  1S          0.00000   0.00000   0.00000   0.00009   0.00000
  36        2S         -0.00004   0.00010   0.00000   0.00032   0.00000
  37 6   H  1S         -0.00002   0.00004   0.00039   0.00079   0.00009
  38        2S          0.00057   0.00096   0.00017   0.00044   0.00013
                          16        17        18        19        20
  16 2   N  1S          2.06449
  17        2S         -0.02783   0.40756
  18        2PX         0.00000   0.00000   0.55828
  19        2PY         0.00000   0.00000   0.00000   0.49296
  20        2PZ         0.00000   0.00000   0.00000   0.00000   0.55428
  21        3S         -0.03608   0.35671   0.00000   0.00000   0.00000
  22        3PX         0.00000   0.00000   0.12023   0.00000   0.00000
  23        3PY         0.00000   0.00000   0.00000   0.15025   0.00000
  24        3PZ         0.00000   0.00000   0.00000   0.00000   0.18138
  25        4XX        -0.00083   0.00040   0.00000   0.00000   0.00000
  26        4YY        -0.00062  -0.00654   0.00000   0.00000   0.00000
  27        4ZZ        -0.00082  -0.00096   0.00000   0.00000   0.00000
  28        4XY         0.00000   0.00000   0.00000   0.00000   0.00000
  29        4XZ         0.00000   0.00000   0.00000   0.00000   0.00000
  30        4YZ         0.00000   0.00000   0.00000   0.00000   0.00000
  31 3   H  1S          0.00000  -0.00034  -0.00040   0.00003  -0.00034
  32        2S          0.00024  -0.00348  -0.00421   0.00008  -0.00301
  33 4   H  1S          0.00001  -0.00084  -0.00160   0.00035  -0.00158
  34        2S          0.00033  -0.00453  -0.00903  -0.00003  -0.00779
  35 5   H  1S         -0.00052   0.01173   0.02167  -0.00005   0.02825
  36        2S         -0.00028   0.00196   0.00813  -0.00015   0.01770
  37 6   H  1S         -0.00119   0.02056   0.00705   0.03254   0.04783
  38        2S          0.00066  -0.00768   0.00328   0.00615   0.01852
                          21        22        23        24        25
  21        3S          0.57660
  22        3PX         0.00000   0.09908
  23        3PY         0.00000   0.00000   0.17156
  24        3PZ         0.00000   0.00000   0.00000   0.22512
  25        4XX        -0.00159   0.00000   0.00000   0.00000   0.00122
  26        4YY        -0.00811   0.00000   0.00000   0.00000  -0.00029
  27        4ZZ         0.00213   0.00000   0.00000   0.00000  -0.00011
  28        4XY         0.00000   0.00000   0.00000   0.00000   0.00000
  29        4XZ         0.00000   0.00000   0.00000   0.00000   0.00000
  30        4YZ         0.00000   0.00000   0.00000   0.00000   0.00000
  31 3   H  1S         -0.00580  -0.00345   0.00013  -0.00420   0.00031
  32        2S         -0.00802  -0.00759   0.00011  -0.00958   0.00055
  33 4   H  1S         -0.00845  -0.00667   0.00083  -0.01127   0.00007
  34        2S         -0.01206  -0.01475  -0.00010  -0.02139  -0.00077
  35 5   H  1S          0.04716   0.02438   0.00079   0.04926   0.00008
  36        2S          0.02047   0.00991   0.00031   0.03648   0.00070
  37 6   H  1S          0.03218   0.00619   0.03187   0.05296  -0.00147
  38        2S         -0.01807   0.00399   0.00882   0.03511  -0.00214
                          26        27        28        29        30
  26        4YY         0.00189
  27        4ZZ         0.00010   0.00081
  28        4XY         0.00000   0.00000   0.00208
  29        4XZ         0.00000   0.00000   0.00000   0.00197
  30        4YZ         0.00000   0.00000   0.00000   0.00000   0.00188
  31 3   H  1S         -0.00002   0.00001   0.00000   0.00047   0.00001
  32        2S         -0.00020   0.00016   0.00000   0.00050   0.00001
  33 4   H  1S         -0.00001   0.00020   0.00021   0.00162   0.00013
  34        2S          0.00067   0.00083   0.00014   0.00066   0.00012
  35 5   H  1S         -0.00039   0.00086   0.00013   0.00260   0.00034
  36        2S         -0.00096   0.00049  -0.00001   0.00065   0.00010
  37 6   H  1S          0.00399   0.00080   0.00027   0.00040   0.00510
  38        2S          0.00290   0.00120   0.00009   0.00014   0.00060
                          31        32        33        34        35
  31 3   H  1S          0.20063
  32        2S          0.06478   0.05553
  33 4   H  1S         -0.00035  -0.00405   0.21948
  34        2S         -0.00380  -0.00834   0.07843   0.07968
  35 5   H  1S          0.00000   0.00039  -0.00020  -0.00282   0.16344
  36        2S          0.00048   0.00298  -0.00427  -0.01047   0.05926
  37 6   H  1S         -0.00029  -0.00375   0.00003   0.00246  -0.00080
  38        2S         -0.00409  -0.00912   0.00290   0.01147  -0.00735
                          36        37        38
  36        2S          0.06172
  37 6   H  1S         -0.00813   0.19803
  38        2S         -0.01777   0.06171   0.06960
     Gross orbital populations:
                           1
   1 1   C  1S          1.99184
   2        2S          0.73724
   3        2PX         0.80029
   4        2PY         0.43219
   5        2PZ         0.83055
   6        3S          0.59941
   7        3PX         0.05929
   8        3PY         0.19537
   9        3PZ         0.30011
  10        4XX         0.00225
  11        4YY        -0.01946
  12        4ZZ         0.02541
  13        4XY         0.01699
  14        4XZ         0.01790
  15        4YZ         0.00666
  16 2   N  1S          1.99199
  17        2S          0.79772
  18        2PX         0.89415
  19        2PY         0.76459
  20        2PZ         0.84123
  21        3S          0.84890
  22        3PX         0.27728
  23        3PY         0.47947
  24        3PZ         0.50843
  25        4XX         0.00768
  26        4YY        -0.00936
  27        4ZZ         0.00046
  28        4XY         0.01139
  29        4XZ         0.01850
  30        4YZ         0.00833
  31 3   H  1S          0.48723
  32        2S          0.19563
  33 4   H  1S          0.52118
  34        2S          0.21090
  35 5   H  1S          0.39036
  36        2S          0.16674
  37 6   H  1S          0.47247
  38        2S          0.11868
          Condensed to atoms (all electrons):
               1          2          3          4          5          6
     1  C    4.916808   0.394407   0.375109   0.388196  -0.020382  -0.058097
     2  N    0.394407   6.614666  -0.048038  -0.094684   0.281774   0.292642
     3  H    0.375109  -0.048038   0.385719  -0.016539   0.003847  -0.017246
     4  H    0.388196  -0.094684  -0.016539   0.456011  -0.017759   0.016857
     5  H   -0.020382   0.281774   0.003847  -0.017759   0.343673  -0.034054
     6  H   -0.058097   0.292642  -0.017246   0.016857  -0.034054   0.391056
 Mulliken charges:
               1
     1  C    0.003959
     2  N   -0.440768
     3  H    0.317148
     4  H    0.267918
     5  H    0.442900
     6  H    0.408843
 Sum of Mulliken charges =   1.00000
 Mulliken charges with hydrogens summed into heavy atoms:
               1
     1  C    0.589025
     2  N    0.410975
 Electronic spatial extent (au):  <R**2>=            245.4398
 Charge=              1.0000 electrons
 Dipole moment (field-independent basis, Debye):
    X=             -7.4371    Y=              2.3460    Z=              0.4175  Tot=              7.8096
 Quadrupole moment (field-independent basis, Debye-Ang):
   XX=              4.3985   YY=             -9.7618   ZZ=             -7.9080
   XY=             -2.5213   XZ=             -2.9966   YZ=              1.1557
 Traceless Quadrupole moment (field-independent basis, Debye-Ang):
   XX=              8.8223   YY=             -5.3381   ZZ=             -3.4842
   XY=             -2.5213   XZ=             -2.9966   YZ=              1.1557
 Octapole moment (field-independent basis, Debye-Ang**2):
  XXX=             25.2839  YYY=             -8.2989  ZZZ=             -3.1619  XYY=             18.5589
  XXY=              0.4256  XXZ=              6.9098  XZZ=             14.3577  YZZ=             -2.0501
  YYZ=             -0.3203  XYZ=             -1.8678
 Hexadecapole moment (field-independent basis, Debye-Ang**3):
 XXXX=           -178.4624 YYYY=            -15.9378 ZZZZ=            -16.5458 XXXY=             11.2107
 XXXZ=            -15.4736 YYYX=             15.8404 YYYZ=             -0.8521 ZZZX=              4.2109
 ZZZY=             -1.1310 XXYY=            -43.8421 XXZZ=            -32.6207 YYZZ=             -5.1616
 XXYZ=              1.8247 YYXZ=              1.8094 ZZXY=              5.2293
 N-N= 4.058073126315D+01 E-N=-2.964533111942D+02  KE= 9.438037609421D+01
 Orbital energies and kinetic energies (alpha):
                                 1                 2
   1         O               -14.698503         21.954299
   2         O               -10.535662         15.871372
   3         O                -1.313176          2.117797
   4         O                -0.931104          1.592129
   5         O                -0.866210          1.234688
   6         O                -0.752065          1.424479
   7         O                -0.711559          1.564194
   8         O                -0.608007          1.431230
   9         V                -0.343851          1.554001
  10         V                -0.234539          1.341137
  11         V                -0.178811          1.112752
  12         V                -0.113028          1.118110
  13         V                -0.060354          0.985292
  14         V                 0.055847          1.152763
  15         V                 0.254915          1.800878
  16         V                 0.302152          1.944746
  17         V                 0.318758          1.686918
  18         V                 0.408626          2.390163
  19         V                 0.433389          1.877849
  20         V                 0.533805          2.493362
  21         V                 0.562538          2.564344
  22         V                 0.570519          2.506476
  23         V                 0.614564          2.638649
  24         V                 0.669048          2.370373
  25         V                 0.759507          3.051808
  26         V                 0.995745          2.454701
  27         V                 1.175096          2.867710
  28         V                 1.315017          2.934250
  29         V                 1.364926          2.890861
  30         V                 1.682042          3.326419
  31         V                 1.812668          3.464402
  32         V                 2.011089          3.700553
  33         V                 2.079867          3.924663
  34         V                 2.219760          3.888445
  35         V                 2.266953          3.979400
  36         V                 2.564862          5.590550
  37         V                 3.448412          9.939882
  38         V                 3.808267         10.028789
 Total kinetic energy from orbitals= 9.438037609421D+01

 Test job not archived.
 1\1\GINC-EAM\SP\RB3LYP\6-31G(d)\C1H4N1(1+)\DULIKAI\30-Apr-2014\0\\# b3
 lyp/6-31g* scf=(tight,maxcycle=10000) iop(9/40=20) nosymm pop=full\\[0
 ] [0]\\1,1\C,0,-2.3968646,0.383122,0.1112106\N,0,-1.2430054,0.2067258,
 0.1604477\H,0,-2.8445472,0.1433187,1.101336\H,0,-2.4035079,-0.0993059,
 -0.8237197\H,0,-0.362192,0.3638379,-0.6948661\H,0,-1.0178066,0.9613559
 ,0.8665966\\Version=EM64L-G09RevD.01\HF=-94.8022338\RMSD=3.230e-09\Dip
 ole=0.3766068,0.3544173,-0.0847121\Quadrupole=6.5591426,-3.9687311,-2.
 5904114,-1.874544,-2.2279232,0.8592212\PG=C01 [X(C1H4N1)]\\@


 If fifty million people say a stupid thing,
 it is still a stupid thing.
                   -- Anatole France
 Job cpu time:       0 days  0 hours  0 minutes  3.0 seconds.
 File lengths (MBytes):  RWF=      5 Int=      0 D2E=      0 Chk=      1 Scr=      1
 Normal termination of Gaussian 09 at Wed Apr 30 17:11:55 2014.
 Initial command:
 /opt/g09_D01_em64t/g09/l1.exe "/tmp/Gau-7763.inp" -scrdir="/tmp/"
 Entering Link 1 = /opt/g09_D01_em64t/g09/l1.exe PID=      7775.
  
 Copyright (c) 1988,1990,1992,1993,1995,1998,2003,2009,2013,
            Gaussian, Inc.  All Rights Reserved.
  
 This is part of the Gaussian(R) 09 program.  It is based on
 the Gaussian(R) 03 system (copyright 2003, Gaussian, Inc.),
 the Gaussian(R) 98 system (copyright 1998, Gaussian, Inc.),
 the Gaussian(R) 94 system (copyright 1995, Gaussian, Inc.),
 the Gaussian 92(TM) system (copyright 1992, Gaussian, Inc.),
 the Gaussian 90(TM) system (copyright 1990, Gaussian, Inc.),
 the Gaussian 88(TM) system (copyright 1988, Gaussian, Inc.),
 the Gaussian 86(TM) system (copyright 1986, Carnegie Mellon
 University), and the Gaussian 82(TM) system (copyright 1983,
 Carnegie Mellon University). Gaussian is a federally registered
 trademark of Gaussian, Inc.
  
 This software contains proprietary and confidential information,
 including trade secrets, belonging to Gaussian, Inc.
  
 This software is provided under written license and may be
 used, copied, transmitted, or stored only in accord with that
 written license.
  
 The following legend is applicable only to US Government
 contracts under FAR:
  
                    RESTRICTED RIGHTS LEGEND
  
 Use, reproduction and disclosure by the US Government is
 subject to restrictions as set forth in subparagraphs (a)
 and (c) of the Commercial Computer Software - Restricted
 Rights clause in FAR 52.227-19.
  
 Gaussian, Inc.
 340 Quinnipiac St., Bldg. 40, Wallingford CT 06492
  
  
 ---------------------------------------------------------------
 Warning -- This program may not be used in any manner that
 competes with the business of Gaussian, Inc. or will provide
 assistance to any competitor of Gaussian, Inc.  The licensee
 of this program is prohibited from giving any competitor of
 Gaussian, Inc. access to this program.  By using this program,
 the user acknowledges that Gaussian, Inc. is engaged in the
 business of creating and licensing software in the field of
 computational chemistry and represents and warrants to the
 licensee that it is not a competitor of Gaussian, Inc. and that
 it will not use this program in any manner prohibited above.
 ---------------------------------------------------------------
  

 Cite this work as:
 Gaussian 09, Revision D.01,
 M. J. Frisch, G. W. Trucks, H. B. Schlegel, G. E. Scuseria, 
 M. A. Robb, J. R. Cheeseman, G. Scalmani, V. Barone, B. Mennucci, 
 G. A. Petersson, H. Nakatsuji, M. Caricato, X. Li, H. P. Hratchian, 
 A. F. Izmaylov, J. Bloino, G. Zheng, J. L. Sonnenberg, M. Hada, 
 M. Ehara, K. Toyota, R. Fukuda, J. Hasegawa, M. Ishida, T. Nakajima, 
 Y. Honda, O. Kitao, H. Nakai, T. Vreven, J. A. Montgomery, Jr., 
 J. E. Peralta, F. Ogliaro, M. Bearpark, J. J. Heyd, E. Brothers, 
 K. N. Kudin, V. N. Staroverov, T. Keith, R. Kobayashi, J. Normand, 
 K. Raghavachari, A. Rendell, J. C. Burant, S. S. Iyengar, J. Tomasi, 
 M. Cossi, N. Rega, J. M. Millam, M. Klene, J. E. Knox, J. B. Cross, 
 V. Bakken, C. Adamo, J. Jaramillo, R. Gomperts, R. E. Stratmann, 
 O. Yazyev, A. J. Austin, R. Cammi, C. Pomelli, J. W. Ochterski, 
 R. L. Martin, K. Morokuma, V. G. Zakrzewski, G. A. Voth, 
 P. Salvador, J. J. Dannenberg, S. Dapprich, A. D. Daniels, 
 O. Farkas, J. B. Foresman, J. V. Ortiz, J. Cioslowski, 
 and D. J. Fox, Gaussian, Inc., Wallingford CT, 2013.
 
 ******************************************
 Gaussian 09:  EM64L-G09RevD.01 24-Apr-2013
                30-Apr-2014 
 ******************************************
 %chk=gaussian.chk
 %mem=1GB
 %nproc=2
 Will use up to    2 processors via shared memory.
 %nproclinda=1
 Will use up to    1 processors via Linda.
 ----------------------------------------------------------------------
 # force b3lyp/ChkBasis scf=(tight,maxcycle=10000) iop(9/40=20) nosymm 
 pop=full geom=AllCheck Guess=Read
 ----------------------------------------------------------------------
 1/10=7,29=7,30=1,38=1/1,3;
 2/12=2,15=1,40=1/2;
 3/5=7,6=2,11=2,14=-4,16=1,25=1,30=1,67=1,71=1,74=-5,116=-2/1,2,3;
 4/5=1/1;
 5/5=2,7=10000,32=2,38=6/2;
 6/7=3,28=1/1;
 7/29=1,30=1/1,2,3,16;
 1/10=7,30=1/3;
 99//99;
 Structure from the checkpoint file:  "gaussian.chk"
 -------
 [0] [0]
 -------
 Charge =  1 Multiplicity = 1
 Z-Matrix found in file.
 C,0,-2.3968646,0.383122,0.1112106
 N,0,-1.2430054,0.2067258,0.1604477
 H,0,-2.8445472,0.1433187,1.101336
 H,0,-2.4035079,-0.0993059,-0.8237197
 H,0,-0.362192,0.3638379,-0.6948661
 H,0,-1.0178066,0.9613559,0.8665966
 Recover connectivity data from disk.

 GradGradGradGradGradGradGradGradGradGradGradGradGradGradGradGradGradGrad
 Berny optimization.
 Initialization pass.
 Trust Radius=3.00D-01 FncErr=1.00D-07 GrdErr=1.00D-07
 Number of steps in this run=      2 maximum allowed number of steps=      2.
 GradGradGradGradGradGradGradGradGradGradGradGradGradGradGradGradGradGrad

                          Input orientation:                          
 ---------------------------------------------------------------------
 Center     Atomic      Atomic             Coordinates (Angstroms)
 Number     Number       Type             X           Y           Z
 ---------------------------------------------------------------------
      1          6           0       -2.396865    0.383122    0.111211
      2          7           0       -1.243005    0.206726    0.160448
      3          1           0       -2.844547    0.143319    1.101336
      4          1           0       -2.403508   -0.099306   -0.823720
      5          1           0       -0.362192    0.363838   -0.694866
      6          1           0       -1.017807    0.961356    0.866597
 ---------------------------------------------------------------------
                    Distance matrix (angstroms):
                    1          2          3          4          5
     1  C    0.000000
     2  N    1.168303   0.000000
     3  H    1.112777   1.858555   0.000000
     4  H    1.052081   1.552098   1.989779   0.000000
     5  H    2.188612   1.237771   3.071979   2.097159   0.000000
     6  H    1.675340   1.057746   2.015259   2.429473   1.795835
                    6
     6  H    0.000000
 Symmetry turned off by external request.
 Stoichiometry    CH4N(1+)
 Framework group  C1[X(CH4N)]
 Deg. of freedom    12
 Full point group                 C1      NOp   1
 Rotational constants (GHZ):    129.8383732     37.5016238     31.5703588
 Basis read from chk: "gaussian.chk" (6D, 7F)
    38 basis functions,    72 primitive gaussians,    38 cartesian basis functions
     8 alpha electrons        8 beta electrons
       nuclear repulsion energy        40.5807312631 Hartrees.
 NAtoms=    6 NActive=    6 NUniq=    6 SFac= 1.00D+00 NAtFMM=   60 NAOKFM=F Big=F
 Integral buffers will be    131072 words long.
 Raffenetti 2 integral format.
 Two-electron integral symmetry is turned off.
 One-electron integrals computed using PRISM.
 NBasis=    38 RedAO= T EigKep=  4.78D-03  NBF=    38
 NBsUse=    38 1.00D-06 EigRej= -1.00D+00 NBFU=    38
 Initial guess from the checkpoint file:  "gaussian.chk"
 B after Tr=     0.000000    0.000000    0.000000
         Rot=    1.000000    0.000000    0.000000    0.000000 Ang=   0.00 deg.
 Keep R1 ints in memory in canonical form, NReq=101191747.
 Requested convergence on RMS density matrix=1.00D-08 within**** cycles.
 Requested convergence on MAX density matrix=1.00D-06.
 Requested convergence on             energy=1.00D-06.
 No special actions if energy rises.
 SCF Done:  E(RB3LYP) =  -94.8022337505     A.U. after    1 cycles
            NFock=  1  Conv=0.10D-08     -V/T= 2.0045

 **********************************************************************

            Population analysis using the SCF density.

 **********************************************************************

 Alpha  occ. eigenvalues --  -14.69850 -10.53566  -1.31318  -0.93110  -0.86621
 Alpha  occ. eigenvalues --   -0.75207  -0.71156  -0.60801
 Alpha virt. eigenvalues --   -0.34385  -0.23454  -0.17881  -0.11303  -0.06035
 Alpha virt. eigenvalues --    0.05585   0.25492   0.30215   0.31876   0.40863
 Alpha virt. eigenvalues --    0.43339   0.53380   0.56254   0.57052   0.61456
 Alpha virt. eigenvalues --    0.66905   0.75951   0.99574   1.17510   1.31502
 Alpha virt. eigenvalues --    1.36493   1.68204   1.81267   2.01109   2.07987
 Alpha virt. eigenvalues --    2.21976   2.26695   2.56486   3.44841   3.80827
     Molecular Orbital Coefficients:
                           1         2         3         4         5
                           O         O         O         O         O
     Eigenvalues --   -14.69850 -10.53566  -1.31318  -0.93110  -0.86621
   1 1   C  1S          0.00012   0.99251  -0.13494   0.12944  -0.04254
   2        2S          0.00026   0.05036   0.25358  -0.26899   0.08249
   3        2PX        -0.00013   0.00193   0.19168   0.01053  -0.02845
   4        2PY         0.00000  -0.00019  -0.03246   0.11585   0.06415
   5        2PZ         0.00001   0.00009   0.00189   0.07193   0.32401
   6        3S         -0.00097  -0.01013   0.08741  -0.24237   0.12991
   7        3PX        -0.00054  -0.00085  -0.01235  -0.00057   0.00753
   8        3PY         0.00012   0.00090  -0.00039   0.02451   0.01873
   9        3PZ         0.00002  -0.00031   0.01781   0.02083   0.09888
  10        4XX        -0.00052  -0.00913   0.01626   0.01517  -0.00198
  11        4YY         0.00003  -0.01032  -0.01647   0.00465  -0.00728
  12        4ZZ         0.00006  -0.01000  -0.00794  -0.01159   0.00407
  13        4XY         0.00007  -0.00012  -0.00492   0.00973   0.00861
  14        4XZ        -0.00001  -0.00002  -0.00077   0.01049   0.01685
  15        4YZ         0.00000   0.00013   0.00334  -0.00636  -0.01211
  16 2   N  1S          0.99261  -0.00064  -0.18486  -0.08460   0.03699
  17        2S          0.03505  -0.00020   0.37410   0.18282  -0.07095
  18        2PX        -0.00080   0.00039  -0.14856   0.31761  -0.11301
  19        2PY         0.00052  -0.00005   0.06186   0.14622   0.11263
  20        2PZ        -0.00016   0.00007   0.00094   0.09589   0.34575
  21        3S          0.00489   0.00125   0.34582   0.30408  -0.17349
  22        3PX        -0.00026   0.00029  -0.02741   0.12657  -0.04763
  23        3PY        -0.00002  -0.00056   0.03131   0.08556   0.04900
  24        3PZ        -0.00005  -0.00018  -0.01155   0.03479   0.19099
  25        4XX        -0.00795  -0.00039   0.00781  -0.01812  -0.00023
  26        4YY        -0.00850  -0.00014  -0.00785   0.01161   0.01300
  27        4ZZ        -0.00849  -0.00025  -0.00600   0.00809  -0.00505
  28        4XY        -0.00010   0.00011  -0.00263   0.00742  -0.00873
  29        4XZ         0.00004  -0.00011  -0.00173  -0.01115  -0.00768
  30        4YZ         0.00000  -0.00014   0.00811   0.01136   0.01406
  31 3   H  1S         -0.00006  -0.00021   0.03858  -0.08353   0.15279
  32        2S         -0.00005   0.00210  -0.01330  -0.01755   0.04557
  33 4   H  1S         -0.00003  -0.00038   0.06494  -0.14960  -0.12639
  34        2S         -0.00008   0.00212   0.00264  -0.02689  -0.04356
  35 5   H  1S          0.00021   0.00001   0.04279   0.11464  -0.14356
  36        2S         -0.00042  -0.00017  -0.00912   0.02995  -0.04642
  37 6   H  1S          0.00031   0.00027   0.09346   0.17433   0.11856
  38        2S         -0.00042   0.00077  -0.01523   0.03870   0.03143
                           6         7         8         9        10
                           O         O         O         V         V
     Eigenvalues --    -0.75207  -0.71156  -0.60801  -0.34385  -0.23454
   1 1   C  1S          0.04918  -0.06609   0.01166  -0.04736  -0.02297
   2        2S         -0.09714   0.13630  -0.02495   0.09095   0.04482
   3        2PX         0.40870  -0.12593  -0.12024  -0.07679   0.07455
   4        2PY         0.07665   0.26314  -0.16900   0.48549   0.06979
   5        2PZ        -0.10230  -0.18099  -0.30578  -0.07208   0.05262
   6        3S         -0.21320   0.20383  -0.01245   0.34401   0.10547
   7        3PX         0.08951  -0.03035  -0.03553  -0.05013   0.10494
   8        3PY         0.03845   0.10932  -0.09613   0.48001   0.16343
   9        3PZ        -0.04935  -0.06586  -0.16315  -0.06041   0.06898
  10        4XX         0.02675  -0.01008  -0.01251  -0.00128  -0.01780
  11        4YY        -0.00715  -0.00762   0.01082   0.00226   0.00341
  12        4ZZ        -0.03048   0.01028   0.01110  -0.00903   0.00467
  13        4XY        -0.00235   0.03172  -0.00411  -0.00919  -0.00532
  14        4XZ         0.01271  -0.00884   0.02152   0.00522   0.02909
  15        4YZ         0.00214   0.01085   0.01613  -0.00248   0.00144
  16 2   N  1S         -0.00460   0.06523   0.00066  -0.04313   0.08735
  17        2S          0.01184  -0.15487   0.00466   0.09776  -0.17544
  18        2PX        -0.35368   0.06140   0.12069   0.08747  -0.20851
  19        2PY         0.13759   0.43145  -0.05921  -0.33537  -0.11942
  20        2PZ         0.02890  -0.09435   0.37238   0.08323   0.29599
  21        3S         -0.02784  -0.21264  -0.01169   0.30220  -0.87384
  22        3PX        -0.16280   0.02428   0.05834   0.07326  -0.27451
  23        3PY         0.06272   0.26266  -0.04642  -0.36335  -0.19766
  24        3PZ         0.02289  -0.06067   0.26559   0.08883   0.38362
  25        4XX        -0.00241  -0.00675  -0.01022  -0.00648   0.02807
  26        4YY         0.00347   0.02058   0.00854  -0.00494  -0.00081
  27        4ZZ        -0.01267  -0.00045   0.00661  -0.00503   0.01323
  28        4XY        -0.01763  -0.01736   0.01703  -0.02195  -0.00836
  29        4XZ         0.01406   0.01008   0.02239   0.00154  -0.02080
  30        4YZ         0.00014  -0.00108   0.02342  -0.00422   0.00240
  31 3   H  1S         -0.21870  -0.00784  -0.14356  -0.11065  -0.10257
  32        2S         -0.12222  -0.00311  -0.10125  -0.15264  -0.26181
  33 4   H  1S         -0.06536   0.09959   0.23017  -0.08504   0.04464
  34        2S         -0.05246   0.06187   0.17500  -0.09332   0.27241
  35 5   H  1S         -0.14107   0.01294  -0.16145  -0.09336   0.27333
  36        2S         -0.08837   0.00461  -0.14106  -0.18203   1.10571
  37 6   H  1S          0.00494   0.09765   0.19045  -0.10820  -0.00316
  38        2S         -0.01308   0.05949   0.16843  -0.15876   0.13352
                          11        12        13        14        15
                           V         V         V         V         V
     Eigenvalues --    -0.17881  -0.11303  -0.06035   0.05585   0.25492
   1 1   C  1S          0.06998  -0.08228   0.00783  -0.08304   0.01135
   2        2S         -0.16853   0.15897   0.00040   0.06354  -0.21072
   3        2PX         0.10143  -0.18193   0.09725   0.03510  -0.33943
   4        2PY         0.10423  -0.19449  -0.01867   0.04055  -0.73232
   5        2PZ        -0.03685  -0.03544  -0.45681  -0.02769   0.00464
   6        3S         -0.75024   1.29371  -0.02165   3.67562  -0.89220
   7        3PX         0.30843  -0.37941   0.23379   2.47335   0.04807
   8        3PY         0.35392  -0.37956  -0.14320  -0.56729   1.09259
   9        3PZ         0.06738  -0.03889  -1.56020  -0.04733  -0.01122
  10        4XX        -0.01026  -0.00093   0.00869  -0.03241  -0.05213
  11        4YY         0.00748   0.01410  -0.00723   0.00506  -0.01307
  12        4ZZ         0.01395  -0.02882  -0.00177   0.04036   0.03625
  13        4XY        -0.00643  -0.01254  -0.00509   0.01148  -0.03289
  14        4XZ        -0.01586  -0.00627  -0.01310  -0.01110   0.00196
  15        4YZ         0.01242   0.00346  -0.01806   0.00113   0.00308
  16 2   N  1S          0.04752   0.02777   0.00307   0.07379  -0.03042
  17        2S         -0.10296  -0.02508   0.00360  -0.08063   0.04638
  18        2PX        -0.04030  -0.12324  -0.08201   0.25889   0.16753
  19        2PY        -0.22754  -0.14280  -0.02018   0.03485  -0.19813
  20        2PZ        -0.23950  -0.20071   0.10420   0.00943   0.20223
  21        3S         -0.67077  -0.47787  -0.14935  -2.94375   0.74237
  22        3PX        -0.15353  -0.08627  -0.06895   1.59507  -0.89258
  23        3PY        -0.49356  -0.18849  -0.02550  -0.13316   0.14286
  24        3PZ        -0.41859  -0.39049   0.47208   0.07244  -0.14676
  25        4XX        -0.00944   0.02017   0.00718   0.00534   0.00840
  26        4YY         0.00587   0.01232  -0.00702   0.02695  -0.00664
  27        4ZZ         0.02059  -0.00659   0.00073   0.01763   0.03311
  28        4XY        -0.00015   0.01831   0.00011  -0.00183   0.06222
  29        4XZ         0.02019   0.00629   0.01544  -0.00012  -0.00033
  30        4YZ         0.00568   0.00000  -0.02374  -0.01827   0.01834
  31 3   H  1S          0.07847  -0.12604   0.07243   0.09643   0.12188
  32        2S          0.63371  -0.92952   1.65521  -0.26383   0.19505
  33 4   H  1S          0.05353  -0.14856  -0.07655   0.12691   0.15460
  34        2S          0.48362  -1.24377  -1.60031  -0.84347  -0.01419
  35 5   H  1S         -0.08846   0.02186   0.04109  -0.00712  -0.00074
  36        2S         -0.17027  -0.01445   0.41174  -0.32551   0.20655
  37 6   H  1S          0.16266   0.12652  -0.06084  -0.07086   0.15463
  38        2S          1.18218   1.03470  -0.03523  -0.34597  -0.45202
                          16        17        18        19        20
                           V         V         V         V         V
     Eigenvalues --     0.30215   0.31876   0.40863   0.43339   0.53380
   1 1   C  1S          0.01013   0.01132  -0.01479  -0.05463  -0.05617
   2        2S          0.23079   0.30055   0.05123  -0.71160  -0.38074
   3        2PX         0.65918   0.16698   0.03407  -0.04931   0.31429
   4        2PY        -0.49282   0.05462   0.37335  -0.20371   0.03336
   5        2PZ         0.23583  -0.67572   0.18491   0.05457  -0.19755
   6        3S          0.89482  -0.91485  -0.53114   2.06724   0.49089
   7        3PX         0.01187  -0.75012  -0.16283   0.69783  -0.58423
   8        3PY         0.48309   0.35933  -0.71332  -0.05548  -0.34661
   9        3PZ        -0.20875   2.20498  -0.53911  -0.11164   0.77579
  10        4XX        -0.04030  -0.01684  -0.07250  -0.04931  -0.15839
[...]
  29        4XZ         0.00046  -0.00015  -0.00011   0.00197
  30        4YZ         0.00086   0.00025   0.00071   0.00053   0.00188
  31 3   H  1S         -0.00286   0.00030  -0.00102  -0.01336  -0.00375
  32        2S         -0.00172   0.00118  -0.00002  -0.00830  -0.00410
  33 4   H  1S         -0.00021   0.00268   0.00633   0.01553   0.00465
  34        2S          0.00337   0.00356   0.00601   0.00887   0.00626
  35 5   H  1S         -0.00495   0.00422   0.00301  -0.01143  -0.00837
  36        2S         -0.00319   0.00144  -0.00054  -0.00863  -0.00741
  37 6   H  1S          0.01297   0.00280   0.00295   0.00460   0.01752
  38        2S          0.00720   0.00300   0.00424   0.00708   0.00927
                          31        32        33        34        35
  31 3   H  1S          0.20063
  32        2S          0.09841   0.05553
  33 4   H  1S         -0.04768  -0.03925   0.21948
  34        2S         -0.03689  -0.02609   0.11914   0.07968
  35 5   H  1S          0.04814   0.04885  -0.04576  -0.03354   0.16344
  36        2S          0.05919   0.04510  -0.05088  -0.03715   0.09001
  37 6   H  1S         -0.04406  -0.03818   0.03648   0.05902  -0.04644
  38        2S         -0.04161  -0.02936   0.06959   0.06279  -0.05061
                          36        37        38
  36        2S          0.06172
  37 6   H  1S         -0.05597   0.19803
  38        2S         -0.04498   0.09375   0.06960
    Full Mulliken population analysis:
                           1         2         3         4         5
   1 1   C  1S          2.05756
   2        2S         -0.01605   0.34928
   3        2PX         0.00000   0.00000   0.47004
   4        2PY         0.00000   0.00000   0.00000   0.24454
   5        2PZ         0.00000   0.00000   0.00000   0.00000   0.49377
   6        3S         -0.03053   0.23778   0.00000   0.00000   0.00000
   7        3PX         0.00000   0.00000   0.04796   0.00000   0.00000
   8        3PY         0.00000   0.00000   0.00000   0.05927   0.00000
   9        3PZ         0.00000   0.00000   0.00000   0.00000   0.11443
  10        4XX        -0.00117  -0.00603   0.00000   0.00000   0.00000
  11        4YY        -0.00108  -0.01017   0.00000   0.00000   0.00000
  12        4ZZ        -0.00199   0.00713   0.00000   0.00000   0.00000
  13        4XY         0.00000   0.00000   0.00000   0.00000   0.00000
  14        4XZ         0.00000   0.00000   0.00000   0.00000   0.00000
  15        4YZ         0.00000   0.00000   0.00000   0.00000   0.00000
  16 2   N  1S          0.00000  -0.00074  -0.00598  -0.00029  -0.00003
  17        2S         -0.00058   0.00841   0.06776   0.00377   0.00047
  18        2PX        -0.00434   0.05280   0.12535   0.00043   0.00104
  19        2PY        -0.00024   0.00284   0.00277   0.03992  -0.00017
  20        2PZ        -0.00004   0.00053   0.00119  -0.00032   0.00529
  21        3S          0.00223  -0.02919   0.05632   0.00408   0.00030
  22        3PX        -0.00415   0.03267   0.02409  -0.00049   0.00047
  23        3PY        -0.00050   0.00363   0.00051   0.05566  -0.00011
  24        3PZ        -0.00008   0.00070   0.00087  -0.00025  -0.00503
  25        4XX        -0.00082   0.00554   0.00214   0.00061   0.00021
  26        4YY         0.00001  -0.00058  -0.00174   0.00021  -0.00003
  27        4ZZ         0.00001  -0.00097  -0.00285   0.00009   0.00002
  28        4XY        -0.00014   0.00066   0.00152   0.00430   0.00003
  29        4XZ        -0.00001   0.00006   0.00009   0.00002   0.00741
  30        4YZ         0.00000   0.00000   0.00002   0.00005  -0.00013
  31 3   H  1S         -0.00205   0.03561   0.01970  -0.00066   0.07027
  32        2S         -0.00131   0.01788   0.00884  -0.00094   0.02714
  33 4   H  1S         -0.00233   0.03605   0.00026   0.01633   0.09322
  34        2S         -0.00087   0.01340   0.00016   0.00569   0.03566
  35 5   H  1S          0.00000  -0.00015  -0.00066  -0.00001  -0.00023
  36        2S          0.00002  -0.00029  -0.00385  -0.00004  -0.00295
  37 6   H  1S          0.00000  -0.00053  -0.00244   0.00114  -0.00201
  38        2S          0.00029  -0.00304  -0.01177  -0.00092  -0.00848
                           6         7         8         9        10
   6        3S          0.34104
   7        3PX         0.00000   0.02081
   8        3PY         0.00000   0.00000   0.04724
   9        3PZ         0.00000   0.00000   0.00000   0.08784
  10        4XX        -0.01263   0.00000   0.00000   0.00000   0.00311
  11        4YY        -0.00450   0.00000   0.00000   0.00000  -0.00023
  12        4ZZ         0.01411   0.00000   0.00000   0.00000  -0.00085
  13        4XY         0.00000   0.00000   0.00000   0.00000   0.00000
  14        4XZ         0.00000   0.00000   0.00000   0.00000   0.00000
  15        4YZ         0.00000   0.00000   0.00000   0.00000   0.00000
  16 2   N  1S          0.00295  -0.00008  -0.00020  -0.00005  -0.00102
  17        2S         -0.03973   0.00033   0.00223   0.00055   0.00893
  18        2PX         0.00711   0.00545  -0.00114   0.00034   0.00739
  19        2PY         0.00262   0.00012   0.02694  -0.00004   0.00065
  20        2PZ         0.00014   0.00013  -0.00014  -0.00859   0.00013
  21        3S         -0.12940  -0.00172   0.00365   0.00067   0.01020
  22        3PX         0.00037  -0.00232  -0.00119   0.00027   0.00316
  23        3PY         0.00496  -0.00013   0.04703  -0.00004   0.00027
  24        3PZ         0.00025   0.00019  -0.00019  -0.02617   0.00012
  25        4XX         0.00353   0.00022   0.00006   0.00010  -0.00001
  26        4YY         0.00099  -0.00040  -0.00018  -0.00006  -0.00010
  27        4ZZ        -0.00039  -0.00125   0.00015  -0.00002  -0.00017
  28        4XY         0.00015   0.00003   0.00140   0.00000   0.00011
  29        4XZ         0.00000   0.00000   0.00000   0.00208  -0.00001
  30        4YZ         0.00000   0.00000   0.00003  -0.00010   0.00000
  31 3   H  1S          0.06644   0.00558  -0.00118   0.04454  -0.00161
  32        2S          0.04953   0.00318  -0.00129   0.02780  -0.00183
  33 4   H  1S          0.04463   0.00012   0.00940   0.05087  -0.00172
  34        2S          0.03274   0.00010   0.00716   0.03568  -0.00330
  35 5   H  1S         -0.00105  -0.00299  -0.00004  -0.00283   0.00002
  36        2S          0.00363  -0.00248  -0.00008  -0.00685  -0.00006
  37 6   H  1S         -0.00076  -0.00572  -0.00025  -0.00672   0.00010
  38        2S          0.00541  -0.00783  -0.00332  -0.01359  -0.00123
                          11        12        13        14        15
  11        4YY         0.00136
  12        4ZZ         0.00027   0.00294
  13        4XY         0.00000   0.00000   0.00244
  14        4XZ         0.00000   0.00000   0.00000   0.00219
  15        4YZ         0.00000   0.00000   0.00000   0.00000   0.00116
  16 2   N  1S          0.00001   0.00001  -0.00012  -0.00001   0.00000
  17        2S         -0.00076  -0.00143   0.00094   0.00010   0.00000
  18        2PX        -0.00233  -0.00257   0.00114   0.00006   0.00001
  19        2PY         0.00025  -0.00009   0.00685   0.00000   0.00004
  20        2PZ        -0.00003   0.00003  -0.00001   0.00768  -0.00002
  21        3S         -0.00080  -0.00501   0.00045   0.00002   0.00000
  22        3PX        -0.00284  -0.00415   0.00007   0.00001   0.00000
  23        3PY        -0.00024  -0.00011   0.00394   0.00000   0.00002
  24        3PZ        -0.00009  -0.00004   0.00000   0.00436  -0.00007
  25        4XX        -0.00012   0.00002   0.00010  -0.00003   0.00000
  26        4YY         0.00000   0.00002   0.00008   0.00001   0.00000
  27        4ZZ         0.00004   0.00011  -0.00001   0.00000   0.00000
  28        4XY         0.00005  -0.00004   0.00041   0.00000   0.00000
  29        4XZ         0.00000   0.00000   0.00000  -0.00026   0.00011
  30        4YZ         0.00000   0.00000   0.00000   0.00014   0.00004
  31 3   H  1S         -0.00052   0.00464   0.00012   0.00168   0.00088
  32        2S         -0.00029   0.00248   0.00002   0.00032   0.00013
  33 4   H  1S          0.00056   0.00516   0.00000   0.00000   0.00368
  34        2S          0.00147   0.00365   0.00000   0.00000   0.00045
  35 5   H  1S          0.00000   0.00000   0.00000   0.00009   0.00000
  36        2S         -0.00004   0.00010   0.00000   0.00032   0.00000
  37 6   H  1S         -0.00002   0.00004   0.00039   0.00079   0.00009
  38        2S          0.00057   0.00096   0.00017   0.00044   0.00013
                          16        17        18        19        20
  16 2   N  1S          2.06449
  17        2S         -0.02783   0.40756
  18        2PX         0.00000   0.00000   0.55828
  19        2PY         0.00000   0.00000   0.00000   0.49296
  20        2PZ         0.00000   0.00000   0.00000   0.00000   0.55428
  21        3S         -0.03608   0.35671   0.00000   0.00000   0.00000
  22        3PX         0.00000   0.00000   0.12023   0.00000   0.00000
  23        3PY         0.00000   0.00000   0.00000   0.15025   0.00000
  24        3PZ         0.00000   0.00000   0.00000   0.00000   0.18138
  25        4XX        -0.00083   0.00040   0.00000   0.00000   0.00000
  26        4YY        -0.00062  -0.00654   0.00000   0.00000   0.00000
  27        4ZZ        -0.00082  -0.00096   0.00000   0.00000   0.00000
  28        4XY         0.00000   0.00000   0.00000   0.00000   0.00000
  29        4XZ         0.00000   0.00000   0.00000   0.00000   0.00000
  30        4YZ         0.00000   0.00000   0.00000   0.00000   0.00000
  31 3   H  1S          0.00000  -0.00034  -0.00040   0.00003  -0.00034
  32        2S          0.00024  -0.00348  -0.00421   0.00008  -0.00301
  33 4   H  1S          0.00001  -0.00084  -0.00160   0.00035  -0.00158
  34        2S          0.00033  -0.00453  -0.00903  -0.00003  -0.00779
  35 5   H  1S         -0.00052   0.01173   0.02167  -0.00005   0.02825
  36        2S         -0.00028   0.00196   0.00813  -0.00015   0.01770
  37 6   H  1S         -0.00119   0.02056   0.00705   0.03254   0.04783
  38        2S          0.00066  -0.00768   0.00328   0.00615   0.01852
                          21        22        23        24        25
  21        3S          0.57660
  22        3PX         0.00000   0.09908
  23        3PY         0.00000   0.00000   0.17156
  24        3PZ         0.00000   0.00000   0.00000   0.22512
  25        4XX        -0.00159   0.00000   0.00000   0.00000   0.00122
  26        4YY        -0.00811   0.00000   0.00000   0.00000  -0.00029
  27        4ZZ         0.00213   0.00000   0.00000   0.00000  -0.00011
  28        4XY         0.00000   0.00000   0.00000   0.00000   0.00000
  29        4XZ         0.00000   0.00000   0.00000   0.00000   0.00000
  30        4YZ         0.00000   0.00000   0.00000   0.00000   0.00000
  31 3   H  1S         -0.00580  -0.00345   0.00013  -0.00420   0.00031
  32        2S         -0.00802  -0.00759   0.00011  -0.00958   0.00055
  33 4   H  1S         -0.00845  -0.00667   0.00083  -0.01127   0.00007
  34        2S         -0.01206  -0.01475  -0.00010  -0.02139  -0.00077
  35 5   H  1S          0.04716   0.02438   0.00079   0.04926   0.00008
  36        2S          0.02047   0.00991   0.00031   0.03648   0.00070
  37 6   H  1S          0.03218   0.00619   0.03187   0.05296  -0.00147
  38        2S         -0.01807   0.00399   0.00882   0.03511  -0.00214
                          26        27        28        29        30
  26        4YY         0.00189
  27        4ZZ         0.00010   0.00081
  28        4XY         0.00000   0.00000   0.00208
  29        4XZ         0.00000   0.00000   0.00000   0.00197
  30        4YZ         0.00000   0.00000   0.00000   0.00000   0.00188
  31 3   H  1S         -0.00002   0.00001   0.00000   0.00047   0.00001
  32        2S         -0.00020   0.00016   0.00000   0.00050   0.00001
  33 4   H  1S         -0.00001   0.00020   0.00021   0.00162   0.00013
  34        2S          0.00067   0.00083   0.00014   0.00066   0.00012
  35 5   H  1S         -0.00039   0.00086   0.00013   0.00260   0.00034
  36        2S         -0.00096   0.00049  -0.00001   0.00065   0.00010
  37 6   H  1S          0.00399   0.00080   0.00027   0.00040   0.00510
  38        2S          0.00290   0.00120   0.00009   0.00014   0.00060
                          31        32        33        34        35
  31 3   H  1S          0.20063
  32        2S          0.06478   0.05553
  33 4   H  1S         -0.00035  -0.00405   0.21948
  34        2S         -0.00380  -0.00834   0.07843   0.07968
  35 5   H  1S          0.00000   0.00039  -0.00020  -0.00282   0.16344
  36        2S          0.00048   0.00298  -0.00427  -0.01047   0.05926
  37 6   H  1S         -0.00029  -0.00375   0.00003   0.00246  -0.00080
  38        2S         -0.00409  -0.00912   0.00290   0.01147  -0.00735
                          36        37        38
  36        2S          0.06172
  37 6   H  1S         -0.00813   0.19803
  38        2S         -0.01777   0.06171   0.06960
     Gross orbital populations:
                           1
   1 1   C  1S          1.99184
   2        2S          0.73724
   3        2PX         0.80029
   4        2PY         0.43219
   5        2PZ         0.83055
   6        3S          0.59941
   7        3PX         0.05929
   8        3PY         0.19537
   9        3PZ         0.30011
  10        4XX         0.00225
  11        4YY        -0.01946
  12        4ZZ         0.02541
  13        4XY         0.01699
  14        4XZ         0.01790
  15        4YZ         0.00666
  16 2   N  1S          1.99199
  17        2S          0.79772
  18        2PX         0.89415
  19        2PY         0.76459
  20        2PZ         0.84123
  21        3S          0.84890
  22        3PX         0.27728
  23        3PY         0.47947
  24        3PZ         0.50843
  25        4XX         0.00768
  26        4YY        -0.00936
  27        4ZZ         0.00046
  28        4XY         0.01139
  29        4XZ         0.01850
  30        4YZ         0.00833
  31 3   H  1S          0.48723
  32        2S          0.19563
  33 4   H  1S          0.52118
  34        2S          0.21090
  35 5   H  1S          0.39036
  36        2S          0.16674
  37 6   H  1S          0.47247
  38        2S          0.11868
          Condensed to atoms (all electrons):
               1          2          3          4          5          6
     1  C    4.916808   0.394407   0.375109   0.388196  -0.020382  -0.058097
     2  N    0.394407   6.614666  -0.048038  -0.094684   0.281774   0.292642
     3  H    0.375109  -0.048038   0.385719  -0.016539   0.003847  -0.017246
     4  H    0.388196  -0.094684  -0.016539   0.456011  -0.017759   0.016857
     5  H   -0.020382   0.281774   0.003847  -0.017759   0.343673  -0.034054
     6  H   -0.058097   0.292642  -0.017246   0.016857  -0.034054   0.391056
 Mulliken charges:
               1
     1  C    0.003959
     2  N   -0.440768
     3  H    0.317148
     4  H    0.267918
     5  H    0.442900
     6  H    0.408843
 Sum of Mulliken charges =   1.00000
 Mulliken charges with hydrogens summed into heavy atoms:
               1
     1  C    0.589025
     2  N    0.410975
 Electronic spatial extent (au):  <R**2>=            245.4398
 Charge=              1.0000 electrons
 Dipole moment (field-independent basis, Debye):
    X=             -7.4371    Y=              2.3460    Z=              0.4175  Tot=              7.8096
 Quadrupole moment (field-independent basis, Debye-Ang):
   XX=              4.3985   YY=             -9.7618   ZZ=             -7.9080
   XY=             -2.5213   XZ=             -2.9966   YZ=              1.1557
 Traceless Quadrupole moment (field-independent basis, Debye-Ang):
   XX=              8.8223   YY=             -5.3381   ZZ=             -3.4842
   XY=             -2.5213   XZ=             -2.9966   YZ=              1.1557
 Octapole moment (field-independent basis, Debye-Ang**2):
  XXX=             25.2839  YYY=             -8.2989  ZZZ=             -3.1619  XYY=             18.5589
  XXY=              0.4256  XXZ=              6.9098  XZZ=             14.3577  YZZ=             -2.0501
  YYZ=             -0.3203  XYZ=             -1.8678
 Hexadecapole moment (field-independent basis, Debye-Ang**3):
 XXXX=           -178.4624 YYYY=            -15.9378 ZZZZ=            -16.5458 XXXY=             11.2107
 XXXZ=            -15.4736 YYYX=             15.8404 YYYZ=             -0.8521 ZZZX=              4.2109
 ZZZY=             -1.1310 XXYY=            -43.8421 XXZZ=            -32.6207 YYZZ=             -5.1616
 XXYZ=              1.8247 YYXZ=              1.8094 ZZXY=              5.2293
 N-N= 4.058073126315D+01 E-N=-2.964533113799D+02  KE= 9.438037617752D+01
 Orbital energies and kinetic energies (alpha):
                                 1                 2
   1         O               -14.698503         21.954299
   2         O               -10.535662         15.871372
   3         O                -1.313176          2.117797
   4         O                -0.931105          1.592129
   5         O                -0.866210          1.234688
   6         O                -0.752065          1.424479
   7         O                -0.711559          1.564194
   8         O                -0.608007          1.431230
   9         V                -0.343851          1.554001
  10         V                -0.234539          1.341137
  11         V                -0.178811          1.112752
  12         V                -0.113028          1.118110
  13         V                -0.060354          0.985292
  14         V                 0.055847          1.152763
  15         V                 0.254915          1.800878
  16         V                 0.302152          1.944746
  17         V                 0.318758          1.686918
  18         V                 0.408626          2.390163
  19         V                 0.433389          1.877849
  20         V                 0.533805          2.493362
  21         V                 0.562538          2.564344
  22         V                 0.570519          2.506476
  23         V                 0.614564          2.638649
  24         V                 0.669048          2.370373
  25         V                 0.759507          3.051808
  26         V                 0.995745          2.454701
  27         V                 1.175096          2.867710
  28         V                 1.315017          2.934250
  29         V                 1.364926          2.890861
  30         V                 1.682042          3.326419
  31         V                 1.812668          3.464402
  32         V                 2.011089          3.700553
  33         V                 2.079867          3.924663
  34         V                 2.219760          3.888445
  35         V                 2.266953          3.979400
  36         V                 2.564862          5.590550
  37         V                 3.448412          9.939882
  38         V                 3.808267         10.028789
 Total kinetic energy from orbitals= 9.438037617752D+01

 Test job not archived.
 1\1\GINC-EAM\SP\RB3LYP TD-FC\Gen\C1H4N1(1+)\DULIKAI\30-Apr-2014\0\\# t
 d(singlet, root=0, nstates=2) b3lyp/ChkBasis scf=(tight,maxcycle=10000
 ) iop(9/40=20) nosymm pop=full geom=AllCheck Guess=Read\\[0] [0]\\1,1\
 C,-2.3968646,0.383122,0.1112106\N,-1.2430054,0.2067258,0.1604477\H,-2.
 8445472,0.1433187,1.101336\H,-2.4035079,-0.0993059,-0.8237197\H,-0.362
 192,0.3638379,-0.6948661\H,-1.0178066,0.9613559,0.8665966\\Version=EM6
 4L-G09RevD.01\HF=-94.8022338\RMSD=1.201e-09\PG=C01 [X(C1H4N1)]\\@


 WE DON'T KNOW ONE MILLIONTH OF ONE PERCENT ABOUT
 ANYTHING.
                                     T. A. EDISON.
 Job cpu time:       0 days  0 hours  0 minutes  7.9 seconds.
 File lengths (MBytes):  RWF=      5 Int=      0 D2E=      0 Chk=      1 Scr=      1
 Normal termination of Gaussian 09 at Wed Apr 30 17:12:00 2014.
