6
AU Step:          0 Time:        0.0000000000
C    -2.46169453     0.31740717     0.17986033
N    -1.19640413     0.15282244     0.08677767
H    -2.87658357     0.88576415     1.02424850
H    -3.12477827    -0.11092386    -0.58500317
H    -0.77175480    -0.37335835    -0.68958963
H    -0.54475939     0.53911569     0.78394939
6
AU Step:          1 Time:        8.2681585435
C    -2.46166496     0.31740334     0.17985813
N    -1.19637983     0.15281927     0.08677588
H    -2.87701193     0.88596009     1.02450190
H    -3.12527420    -0.11099967    -0.58518834
H    -0.77164290    -0.37339417    -0.68963171
H    -0.54463709     0.53912111     0.78397431
6
AU Step:          2 Time:       16.5363170871
C    -2.46157686     0.31739193     0.17985158
N    -1.19630672     0.15280973     0.08677049
H    -2.87829409     0.88654455     1.02525718
H    -3.12675765    -0.11122471    -0.58573946
H    -0.77130843    -0.37350072    -0.68975666
H    -0.54427179     0.53913680     0.78404797
6
AU Step:          3 Time:       24.8044756306
C    -2.46143207     0.31737317     0.17984081
N    -1.19618419     0.15279375     0.08676147
H    -2.88042131     0.88750755     1.02649972
H    -3.12921561    -0.11159182    -0.58664350
H    -0.77075499    -0.37367526    -0.68996064
H    -0.54366818     0.53916113     0.78416714
6
AU Step:          4 Time:       33.0726341742
C    -2.46123364     0.31734746     0.17982605
N    -1.19601123     0.15277119     0.08674874
H    -2.88337924     0.88883278     1.02820561
H    -3.13262677    -0.11208934    -0.58787921
H    -0.76998850    -0.37391334    -0.69023738
H    -0.54283397     0.53919140     0.78432655
6
AU Step:          5 Time:       41.3407927177
C    -2.46098569     0.31731534     0.17980760
N    -1.19578647     0.15274187     0.08673219
H    -2.88714812     0.89049806     1.03034236
H    -3.13696192    -0.11270144    -0.58941770
H    -0.76901708    -0.37420887    -0.69057833
H    -0.54177971     0.53922394     0.78451900
6
AU Step:          6 Time:       49.6089512612
C    -2.46069338     0.31727749     0.17978585
N    -1.19550821     0.15270557     0.08671171
H    -2.89170320     0.89247595     1.03286981
H    -3.14218463    -0.11340864    -0.59122332
H    -0.76785085    -0.37455434    -0.69097292
H    -0.54051853     0.53925424     0.78473563
6
AU Step:          7 Time:       57.8771098048
C    -2.46036276     0.31723467     0.17976123
N    -1.19517451     0.15266205     0.08668715
H    -2.89701514     0.89473444     1.03574122
H    -3.14825195    -0.11418832    -0.59325466
H    -0.76650173    -0.37494094    -0.69140881
H    -0.53906585     0.53927705     0.78496610
6
AU Step:          8 Time:       66.1452683483
C    -2.46000063     0.31718779     0.17973426
N    -1.19478320     0.15261102     0.08665836
H    -2.90305050     0.89723776     1.03890442
H    -3.15511531    -0.11501538    -0.59546559
H    -0.76498321    -0.37535885    -0.69187224
H    -0.53743907     0.53928655     0.78519889
6
AU Step:          9 Time:       74.4134268919
C    -2.45961445     0.31713780     0.17970547
N    -1.19433198     0.15255219     0.08662516
H    -2.90977228     0.89994724     1.04230310
H    -3.16272133    -0.11586288    -0.59780646
H    -0.76331008    -0.37579745    -0.69234836
H    -0.53565719     0.53927649     0.78542163
6
AU Step:         10 Time:       82.6815854354
C    -2.45921211     0.31708574     0.17967545
N    -1.19381846     0.15248524     0.08658738
H    -2.91714045     0.90282208     1.04587802
H    -3.17101284    -0.11670266    -0.60022517
H    -0.76149812    -0.37624558    -0.69282161
H    -0.53374042     0.53924039     0.78562137
6
AU Step:         11 Time:       90.9497439789
C    -2.45880187     0.31703268     0.17964481
N    -1.19324025     0.15240986     0.08654485
H    -2.92511252     0.90582022     1.04956822
H    -3.17992971    -0.11750597    -0.60266833
H    -0.75956390    -0.37669181    -0.69327608
H    -0.53170978     0.53917167     0.78578497
6
AU Step:         12 Time:       99.2179025225
C    -2.45839215     0.31697970     0.17961417
N    -1.19259505     0.15232576     0.08649740
H    -2.93364410     0.90889904     1.05331214
H    -3.18940977    -0.11824406    -0.60508224
H    -0.75752441    -0.37712467    -0.69369588
H    -0.52958678     0.53906387     0.78589933
6
AU Step:         13 Time:      107.4860610660
C    -2.45799139     0.31692792     0.17958416
N    -1.19188065     0.15223264     0.08644487
H    -2.94268938     0.91201605     1.05704859
H    -3.19938962    -0.11888862    -0.60741378
H    -0.75539684    -0.37753294    -0.69406550
H    -0.52739294     0.53891076     0.78595180
6
AU Step:         14 Time:      115.7542196095
C    -2.45760798     0.31687842     0.17955538
N    -1.19109508     0.15213026     0.08638711
H    -2.95220169     0.91512950     1.06071768
H    -3.20980538    -0.11941228    -0.60961122
H    -0.75319830    -0.37790582    -0.69437017
H    -0.52514955     0.53870655     0.78593038
6
AU Step:         15 Time:      124.0223781531
C    -2.45725008     0.31683225     0.17952846
N    -1.19023661     0.15201840     0.08632400
H    -2.96213388     0.91819884     1.06426147
H    -3.22059335    -0.11978892    -0.61162484
H    -0.75094560    -0.37823322    -0.69459612
H    -0.52287722     0.53844598     0.78582404
6
AU Step:         16 Time:      132.2905366966
C    -2.45692554     0.31679045     0.17950396
N    -1.18930385     0.15189686     0.08625544
H    -2.97243879     0.92118517     1.06762465
H    -3.23169057    -0.11999395    -0.61340744
H    -0.74865502    -0.37850592    -0.69473090
H    -0.52059569     0.53812450     0.78562298
6
AU Step:         17 Time:      140.5586952402
C    -2.45664181     0.31675398     0.17948244
N    -1.18829578     0.15176552     0.08618136
H    -2.98306955     0.92405155     1.07075493
H    -3.24303533    -0.12000456    -0.61491479
H    -0.74634207    -0.37871572    -0.69476363
H    -0.51832347     0.53773833     0.78531878
6
AU Step:         18 Time:      148.8268537837
C    -2.45640586     0.31672375     0.17946441
N    -1.18721177     0.15162431     0.08610170
H    -2.99397993     0.92676321     1.07360346
H    -3.25456753    -0.11979983    -0.61610586
H    -0.74402138    -0.37885567    -0.69468519
H    -0.51607766     0.53728460     0.78490468
6
AU Step:         19 Time:      157.0950123272
C    -2.45622414     0.31670060     0.17945035
N    -1.18605168     0.15147319     0.08601647
H    -3.00512456     0.92928777     1.07612498
H    -3.26622905    -0.11936084    -0.61694305
H    -0.74170652    -0.37892009    -0.69448845
H    -0.51387370     0.53676143     0.78437563
6
AU Step:         20 Time:      165.3631708708
C    -2.45610246     0.31668529     0.17944069
N    -1.18481583     0.15131221     0.08592568
H    -3.01645919     0.93159534     1.07827807
H    -3.27796397    -0.11867072    -0.61739227
H    -0.73940983    -0.37890478    -0.69416837
H    -0.51172523     0.53616797     0.78372851
6
AU Step:         21 Time:      173.6313294143
C    -2.45604605     0.31667849     0.17943581
N    -1.18350508     0.15114150     0.08582939
H    -3.02794083     0.93365855     1.08002511
H    -3.28971880    -0.11771466    -0.61742305
H    -0.73714240    -0.37880705    -0.69372215
H    -0.50964394     0.53550447     0.78296217
6
AU Step:         22 Time:      181.8994879579
C    -2.45605945     0.31668080     0.17943605
N    -1.18212077     0.15096121     0.08572772
H    -3.03952791     0.93545262     1.08133239
H    -3.30144261    -0.11647990    -0.61700845
H    -0.73491391    -0.37862575    -0.69314928
H    -0.50763947     0.53477230     0.78207754
6
AU Step:         23 Time:      190.1676465014
C    -2.45614652     0.31669271     0.17944169
N    -1.18066482     0.15077160     0.08562080
H    -3.05118040     0.93695529     1.08216999
H    -3.31308714    -0.11495568    -0.61612509
H    -0.73273259    -0.37836138    -0.69245163
H    -0.50571931     0.53397400     0.78107762
6
AU Step:         24 Time:      198.4358050449
C    -2.45631047     0.31671465     0.17945296
N    -1.17913966     0.15057299     0.08550881
H    -3.06285988     0.93814683     1.08251177
H    -3.32460685    -0.11313317    -0.61475298
H    -0.73060521    -0.37801605    -0.69163342
H    -0.50388881     0.53311323     0.77996753
6
AU Step:         25 Time:      206.7039635885
C    -2.45655378     0.31674694     0.17947005
N    -1.17754826     0.15036576     0.08539197
H    -3.07452961     0.93900993     1.08233520
H    -3.33595898    -0.11100540    -0.61287546
H    -0.72853704    -0.37759346    -0.69070123
H    -0.50215114     0.53219480     0.77875448
6
AU Step:         26 Time:      214.9721221320
C    -2.45687828     0.31678981     0.17949309
N    -1.17589411     0.15015037     0.08527053
H    -3.08615459     0.93952968     1.08162128
H    -3.34710352    -0.10856720    -0.61047908
H    -0.72653188    -0.37709892    -0.68966395
H    -0.50050728     0.53122463     0.77744770
6
AU Step:         27 Time:      223.2402806756
C    -2.45728513     0.31684342     0.17952218
N    -1.17418120     0.14992734     0.08514480
H    -3.09770156     0.93969342     1.08035438
H    -3.35800320    -0.10581508    -0.60755340
H    -0.72459204    -0.37653924    -0.68853267
H    -0.49895614     0.53020971     0.77605839
6
AU Step:         28 Time:      231.5084392191
C    -2.45777485     0.31690784     0.17955734
N    -1.17241400     0.14969724     0.08501509
H    -3.10913902     0.93949070     1.07852213
H    -3.36862346    -0.10274718    -0.60409092
H    -0.72271846    -0.37592268    -0.68732061
H    -0.49749461     0.52915800     0.77459960
6
AU Step:         29 Time:      239.7765977626
C    -2.45834733     0.31698304     0.17959858
N    -1.17059743     0.14946072     0.08488177
H    -3.12043728     0.93891321     1.07611526
H    -3.37893245    -0.09936318    -0.60008693
H    -0.72091072    -0.37525886    -0.68604291
H    -0.49611766     0.52807842     0.77308609
6
AU Step:         30 Time:      248.0447563062
C    -2.45900185     0.31706893     0.17964583
N    -1.16873681     0.14921847     0.08474523
H    -3.13156840     0.93795464     1.07312750
H    -3.38890095    -0.09566419    -0.59553936
H    -0.71916716    -0.37455859    -0.68471648
H    -0.49481853     0.52698069     0.77153416
6
AU Step:         31 Time:      256.3129148497
C    -2.45973712     0.31716535     0.17969901
N    -1.16683785     0.14897122     0.08460589
H    -3.14250624     0.93661067     1.06955545
H    -3.39850237    -0.09165275    -0.59044869
H    -0.71748502    -0.37383376    -0.68335976
H    -0.49358887     0.52587527     0.76996148
6
AU Step:         32 Time:      264.5810733933
C    -2.46055131     0.31727207     0.17975798
N    -1.16490656     0.14871977     0.08446419
H    -3.15322649     0.93487888     1.06539849
H    -3.40771274    -0.08733272    -0.58481788
H    -0.71586052    -0.37309714    -0.68199249
H    -0.49241900     0.52477320     0.76838678
6
AU Step:         33 Time:      272.8492319368
C    -2.46144206     0.31738876     0.17982257
N    -1.16294924     0.14846492     0.08432060
H    -3.16370662     0.93275871     1.06065868
H    -3.41651067    -0.08270922    -0.57865224
H    -0.71428908    -0.37236221    -0.68063538
H    -0.49129809     0.52368595     0.76682970
6
AU Step:         34 Time:      281.1173904803
C    -2.46240650     0.31751506     0.17989256
N    -1.16097239     0.14820752     0.08417558
H    -3.17392596     0.93025139     1.05534075
H    -3.42487737    -0.07778865    -0.57195938
H    -0.71276545    -0.37164292    -0.67930983
H    -0.49021448     0.52262529     0.76531038
6
AU Step:         35 Time:      289.3855490239
C    -2.46344129     0.31765053     0.17996771
N    -1.15898270     0.14794844     0.08402964
H    -3.18386572     0.92735997     1.04945196
H    -3.43279670    -0.07257858    -0.56474916
H    -0.71128392    -0.37095345    -0.67803753
H    -0.48915598     0.52160310     0.76384926
6
AU Step:         36 Time:      297.6537075674
C    -2.46454263     0.31779469     0.18004774
N    -1.15698692     0.14768856     0.08388326
H    -3.19350900     0.92408924     1.04300216
H    -3.44025512    -0.06708778    -0.55703366
H    -0.70983852    -0.37030798    -0.67684014
H    -0.48811012     0.52063118     0.76246666
6
AU Step:         37 Time:      305.9218661109
C    -2.46570629     0.31794697     0.18013234
N    -1.15499187     0.14742877     0.08373695
H    -3.20284087     0.92044579     1.03600369
H    -3.44724181    -0.06132616    -0.54882714
H    -0.70842326    -0.36972040    -0.67573887
H    -0.48706458     0.51972104     0.76118247
6
AU Step:         38 Time:      314.1900246545
C    -2.46692760     0.31810679     0.18022116
N    -1.15300432     0.14716993     0.08359120
H    -3.21184844     0.91643793     1.02847147
H    -3.45374871    -0.05530479    -0.54014605
H    -0.70703233    -0.36920405    -0.67475407
H    -0.48600743     0.51888376     0.76001578
6
AU Step:         39 Time:      322.4581831980
C    -2.46820151     0.31827347     0.18031384
N    -1.15103096     0.14691292     0.08344650
H    -3.22052091     0.91207580     1.02042292
H    -3.45977057    -0.04903589    -0.53100900
H    -0.70566032    -0.36877146    -0.67390485
H    -0.48492757     0.51812971     0.75898452
6
AU Step:         40 Time:      330.7263417416
C    -2.46952253     0.31844630     0.18040996
N    -1.14907834     0.14665859     0.08330333
H    -3.22884968     0.90737132     1.01187806
H    -3.46530509    -0.04253283    -0.52143683
H    -0.70430245    -0.36843404    -0.67320867
H    -0.48381495     0.51746843     0.75810508
6
AU Step:         41 Time:      338.9945002851
C    -2.47088481     0.31862454     0.18050911
N    -1.14715278     0.14640775     0.08316216
H    -3.23682841     0.90233828     1.00285953
H    -3.47035299    -0.03581013    -0.51145260
H    -0.70295477    -0.36820189    -0.67268099
H    -0.48266102     0.51690836     0.75739204
6
AU Step:         42 Time:      347.2626588286
C    -2.47228208     0.31880736     0.18061082
N    -1.14526037     0.14616121     0.08302342
H    -3.24445317     0.89699234     0.99339262
H    -3.47491816    -0.02888349    -0.50108161
H    -0.70161435    -0.36808349    -0.67233486
H    -0.48145889     0.51645677     0.75685777
6
AU Step:         43 Time:      355.5308173722
C    -2.47370770     0.31899391     0.18071459
N    -1.14340686     0.14591970     0.08288755
H    -3.25172253     0.89135107     0.98350535
H    -3.47900777    -0.02176977    -0.49035150
H    -0.70027946    -0.36808557    -0.67218072
H    -0.48020368     0.51611952     0.75651223
6
AU Step:         44 Time:      363.7989759157
C    -2.47515464     0.31918327     0.18081993
N    -1.14159767     0.14568394     0.08275494
H    -3.25863770     0.88543405     0.97322851
H    -3.48263242    -0.01448705    -0.47929220
H    -0.69894967    -0.36821288    -0.67222605
H    -0.47889268     0.51590097     0.75636271
6
AU Step:         45 Time:      372.0671344593
C    -2.47661545     0.31937448     0.18092627
N    -1.13983783     0.14545456     0.08262596
H    -3.26520260     0.87926287     0.96259572
H    -3.48580625    -0.00705460    -0.46793604
H    -0.69762598    -0.36846811    -0.67247525
H    -0.47752552     0.51580390     0.75641367
6
AU Step:         46 Time:      380.3352930028
C    -2.47808231     0.31956652     0.18103306
N    -1.13813195     0.14523218     0.08250095
H    -3.27142404     0.87286115     0.95164347
H    -3.48854709     0.00050709    -0.45631772
H    -0.69631087    -0.36885177    -0.67292946
H    -0.47610427     0.51582942     0.75666660
6
AU Step:         47 Time:      388.6034515463
C    -2.47954699     0.31975834     0.18113967
N    -1.13648421     0.14501733     0.08238021
H    -3.27731178     0.86625460     0.94041111
H    -3.49087655     0.00817637    -0.44447431
H    -0.69500833    -0.36936217    -0.67358656
H    -0.47463348     0.51597695     0.75712002
6
AU Step:         48 Time:      396.8716100899
C    -2.48100088     0.31994881     0.18124549
N    -1.13489835     0.14481050     0.08226402
H    -3.28287865     0.85947100     0.92894089
H    -3.49282008     0.01593037    -0.43244526
H    -0.69372383    -0.36999544    -0.67444116
H    -0.47312013     0.51624425     0.75776946
6
AU Step:         49 Time:      405.1397686334
C    -2.48243495     0.32013677     0.18134984
N    -1.13337768     0.14461212     0.08215262
H    -3.28814055     0.85254020     0.91727786
H    -3.49440705     0.02374514    -0.42027230
H    -0.69246427    -0.37074558    -0.67548468
H    -0.47157360     0.51662742     0.75860756
6
AU Step:         50 Time:      413.4079271770
C    -2.48383984     0.32032099     0.18145204
N    -1.13192505     0.14442256     0.08204622
H    -3.29311652     0.84549402     0.90546982
H    -3.49567066     0.03159559    -0.40799937
H    -0.69123786    -0.37160459    -0.67670557
H    -0.47000544     0.51712105     0.75962420
6
AU Step:         51 Time:      421.6760857205
C    -2.48520580     0.32050022     0.18155137
N    -1.13054290     0.14424214     0.08194501
H    -3.29782867     0.83836616     0.89356713
H    -3.49664795     0.03945569    -0.39567248
H    -0.69005404    -0.37256262    -0.67808948
H    -0.46842927     0.51771824     0.76080672
6
AU Step:         52 Time:      429.9442442640
C    -2.48652281     0.32067316     0.18164709
N    -1.12923324     0.14407111     0.08184914
H    -3.30230209     0.83119210     0.88162257
H    -3.49737957     0.04729846    -0.38333957
H    -0.68892326    -0.37360814    -0.67961956
H    -0.46686046     0.51841083     0.76214016
6
AU Step:         53 Time:      438.2124028076
C    -2.48778054     0.32083847     0.18173844
N    -1.12799772     0.14390970     0.08175871
H    -3.30656464     0.82400887     0.86969102
H    -3.49790953     0.05509615    -0.37105021
H    -0.68785681    -0.37472818    -0.68127679
H    -0.46531586     0.51918951     0.76360757
6
AU Step:         54 Time:      446.4805613511
C    -2.48896851     0.32099480     0.18182465
N    -1.12683761     0.14375807     0.08167384
H    -3.31064671     0.81685483     0.85782915
H    -3.49828488     0.06282040    -0.35885539
H    -0.68686664    -0.37590859    -0.68304035
H    -0.46381352     0.52004399     0.76519029
6
AU Step:         55 Time:      454.7487198947
C    -2.49007609     0.32114076     0.18190493
N    -1.12575387     0.14361635     0.08159459
H    -3.31458080     0.80976942     0.84609503
H    -3.49855513     0.07044236    -0.34680711
H    -0.68596514    -0.37713427    -0.68488796
H    -0.46237236     0.52096323     0.76686836
6
AU Step:         56 Time:      463.0168784382
C    -2.49109267     0.32127499     0.18197850
N    -1.12474713     0.14348461     0.08152102
H    -3.31840104     0.80279276     0.83454766
H    -3.49877170     0.07793294    -0.33495807
H    -0.68516488    -0.37838946    -0.68679635
H    -0.46101180     0.52193560     0.76862082
6
AU Step:         57 Time:      471.2850369817
C    -2.49200775     0.32139613     0.18204459
N    -1.12381777     0.14336291     0.08145314
H    -3.32214262     0.79596536     0.82324642
H    -3.49898710     0.08526297    -0.32336117
H    -0.68447842    -0.37965798    -0.68874158
H    -0.45975142     0.52294912     0.77042607
6
AU Step:         58 Time:      479.5531955253
C    -2.49281110     0.32150286     0.18210243
N    -1.12296595     0.14325126     0.08139098
H    -3.32584098     0.78932765     0.81225057
H    -3.49925409     0.09240346    -0.31206913
H    -0.68391809    -0.38092356    -0.69069950
H    -0.45861067     0.52399159     0.77226229
6
AU Step:         59 Time:      487.8213540688
C    -2.49349291     0.32159390     0.18215131
N    -1.12219157     0.14314967     0.08133454
H    -3.32953106     0.78291954     0.80161857
H    -3.49962467     0.09932574    -0.30113399
H    -0.68349578    -0.38217004    -0.69264610
H    -0.45760850     0.52505084     0.77410770
6
AU Step:         60 Time:      496.0895126123
C    -2.49404400     0.32166807     0.18219054
N    -1.12149441     0.14305809     0.08128378
H    -3.33324633     0.77677994     0.79140752
H    -3.50014899     0.10600172    -0.29060665
H    -0.68322272    -0.38338163    -0.69455785
H    -0.45676308     0.52611491     0.77594092
6
AU Step:         61 Time:      504.3576711559
C    -2.49445597     0.32172427     0.18221951
N    -1.12087405     0.14297647     0.08123870
H    -3.33701782     0.77094626     0.78167244
H    -3.50087417     0.11240411    -0.28053635
H    -0.68310931    -0.38454314    -0.69641211
H    -0.45609151     0.52717217     0.77774131
6
AU Step:         62 Time:      512.6258296994
C    -2.49472141     0.32176156     0.18223765
N    -1.12032996     0.14290474     0.08119925
H    -3.34087310     0.76545391     0.77246567
H    -3.50184311     0.11850662    -0.27097018
H    -0.68316495    -0.38564023    -0.69818735
H    -0.45560955     0.52821151     0.77948919
6
AU Step:         63 Time:      520.8939882430
C    -2.49483410     0.32177913     0.18224452
N    -1.11986150     0.14284283     0.08116538
H    -3.34483527     0.76033579     0.76383614
H    -3.50309332     0.12428416    -0.26195259
H    -0.68339790    -0.38665952    -0.69986351
H    -0.45533140     0.52922247     0.78116611
6
AU Step:         64 Time:      529.1621467865
C    -2.49478918     0.32177634     0.18223973
N    -1.11946795     0.14279063     0.08113705
H    -3.34892201     0.75562184     0.75582882
H    -3.50465578     0.12971310    -0.25352487
H    -0.68381511    -0.38758884    -0.70142222
H    -0.45526949     0.53019537     0.78275511
6
AU Step:         65 Time:      537.4303053300
C    -2.49458327     0.32175278     0.18222305
N    -1.11914852     0.14274804     0.08111420
H    -3.35314482     0.75133856     0.74848406
H    -3.50655396     0.13477144    -0.24572474
H    -0.68442216    -0.38841731    -0.70284699
H    -0.45543427     0.53112143     0.78424087
6
AU Step:         66 Time:      545.6984638736
C    -2.49421467     0.32170821     0.18219434
N    -1.11890237     0.14271496     0.08109677
H    -3.35750826     0.74750864     0.74183709
H    -3.50880304     0.13943903    -0.23858592
H    -0.68522311    -0.38913555    -0.70412347
H    -0.45583411     0.53199285     0.78560994
6
AU Step:         67 Time:      553.9666224171
C    -2.49368339     0.32164265     0.18215358
N    -1.11872862     0.14269126     0.08108469
H    -3.36200959     0.74415066     0.73591760
H    -3.51140930     0.14369773    -0.23213776
H    -0.68622043    -0.38973570    -0.70523954
H    -0.45647514     0.53280289     0.78685083
6
AU Step:         68 Time:      562.2347809607
C    -2.49299118     0.32155633     0.18210091
N    -1.11862637     0.14267683     0.08107791
H    -3.36663846     0.74127881     0.73074932
H    -3.51436982     0.14753161    -0.22640488
H    -0.68741497    -0.39021157    -0.70618552
H    -0.45736115     0.53354596     0.78795418
6
AU Step:         69 Time:      570.5029395042
C    -2.49214161     0.32144971     0.18203657
N    -1.11859471     0.14267155     0.08107636
H    -3.37137702     0.73890273     0.72634979
H    -3.51767240     0.15092712    -0.22140698
H    -0.68880591    -0.39055869    -0.70695419
H    -0.45849351     0.53421764     0.78891280
6
AU Step:         70 Time:      578.7710980477
C    -2.49113992     0.32132347     0.18196094
N    -1.11863272     0.14267530     0.08107997
H    -3.37620013     0.73702747     0.72273023
H    -3.52129578     0.15387320    -0.21715860
H    -0.69039069    -0.39077436    -0.70754095
H    -0.45987116     0.53481477     0.78972181
6
AU Step:         71 Time:      587.0392565913
C    -2.48999301     0.32117852     0.18187453
N    -1.11873949     0.14268795     0.08108867
H    -3.38107588     0.73565346     0.71989545
H    -3.52521016     0.15636138    -0.21366905
H    -0.69216508    -0.39085769    -0.70794381
H    -0.46149055     0.53533543     0.79037866
6
AU Step:         72 Time:      595.3074151348
C    -2.48870928     0.32101596     0.18177795
N    -1.11891413     0.14270939     0.08110241
H    -3.38596632     0.73477664     0.71784395
H    -3.52937790     0.15838591    -0.21094234
H    -0.69412312    -0.39080961    -0.70816345
H    -0.46334565     0.53577898     0.79088313
6
AU Step:         73 Time:      603.5755736784
C    -2.48729845     0.32083703     0.18167191
N    -1.11915576     0.14273951     0.08112112
H    -3.39082830     0.73438865     0.71656813
H    -3.53375442     0.15994377    -0.20897726
H    -0.69625717    -0.39063285    -0.70820320
H    -0.46542798     0.53614609     0.79123736
6
AU Step:         74 Time:      611.8437322219
C    -2.48577144     0.32064318     0.18155719
N    -1.11946352     0.14277818     0.08114474
H    -3.39561447     0.73447709     0.71605457
H    -3.53828926     0.16103464    -0.20776756
H    -0.69855798    -0.39033196    -0.70806902
H    -0.46772667     0.53643865     0.79144584
6
AU Step:         75 Time:      620.1118907654
C    -2.48414010     0.32043594     0.18143468
N    -1.11983657     0.14282529     0.08117321
H    -3.40027433     0.73502590     0.71628442
H    -3.54292722     0.16166087    -0.20730212
H    -0.70101471    -0.38991321    -0.70776945
H    -0.47022853     0.53665983     0.79151532
6
AU Step:         76 Time:      628.3800493090
C    -2.48241707     0.32021695     0.18130529
N    -1.12027409     0.14288074     0.08120647
H    -3.40475526     0.73601567     0.71723391
H    -3.54760957     0.16182741    -0.20756533
H    -0.70361503    -0.38938458    -0.70731549
H    -0.47291816     0.53681401     0.79145479
6
AU Step:         77 Time:      636.6482078525
C    -2.48061552     0.31998793     0.18116999
N    -1.12077529     0.14294441     0.08124447
H    -3.40900358     0.73742417     0.71887488
H    -3.55227519     0.16154157    -0.20853747
H    -0.70634523    -0.38875564    -0.70672051
H    -0.47577805     0.53690669     0.79127530
6
AU Step:         78 Time:      644.9163663961
C    -2.47874901     0.31975066     0.18102978
N    -1.12133936     0.14301621     0.08128714
H    -3.41296548     0.73922672     0.72117536
H    -3.55686172     0.16081295    -0.21019510
H    -0.70919029    -0.38803746    -0.70600005
H    -0.47878880     0.53694448     0.79098989
6
AU Step:         79 Time:      653.1845249396
C    -2.47683131     0.31950691     0.18088566
N    -1.12196553     0.14309601     0.08133444
H    -3.41658794     0.74139675     0.72410025
H    -3.56130659     0.15965313    -0.21251162
H    -0.71213407    -0.38724245    -0.70517169
H    -0.48192925     0.53693495     0.79061339
6
AU Step:         80 Time:      661.4526834831
C    -2.47487617     0.31925849     0.18073864
N    -1.12265299     0.14318372     0.08138629
H    -3.41981949     0.74390616     0.72761192
H    -3.56554801     0.15807547    -0.21545771
H    -0.71515941    -0.38638424    -0.70425477
H    -0.48517674     0.53688655     0.79016224
6
AU Step:         81 Time:      669.7208420267
C    -2.47289727     0.31900717     0.18058973
N    -1.12340092     0.14327922     0.08144266
H    -3.42261086     0.74672587     0.73167080
H    -3.56952574     0.15609484    -0.21900189
H    -0.71824835    -0.38547746    -0.70327013
H    -0.48850733     0.53680848     0.78965420
6
AU Step:         82 Time:      677.9890005702
C    -2.47090802     0.31875470     0.18043991
N    -1.12420846     0.14338240     0.08150346
H    -3.42491554     0.74982616     0.73623604
H    -3.57318187     0.15372740    -0.22311099
H    -0.72138226    -0.38453757    -0.70223984
H    -0.49189610     0.53671056     0.78910816
6
AU Step:         83 Time:      686.2571591137
C    -2.46892150     0.31850280     0.18029015
N    -1.12507470     0.14349312     0.08156864
H    -3.42669024     0.75317710     0.74126600
H    -3.57646140     0.15099030    -0.22775064
H    -0.72454210    -0.38358059    -0.70118681
H    -0.49531742     0.53660300     0.78854376
6
AU Step:         84 Time:      694.5253176573
C    -2.46695033     0.31825309     0.18014136
N    -1.12599862     0.14361126     0.08163813
H    -3.42789524     0.75674888     0.74671877
H    -3.57931272     0.14790150    -0.23288566
H    -0.72770859    -0.38262286    -0.70013445
H    -0.49874532     0.53649628     0.78798111
6
AU Step:         85 Time:      702.7934762008
C    -2.46500663     0.31800718     0.17999445
N    -1.12697913     0.14373666     0.08171184
H    -3.42849462     0.76051211     0.75255259
H    -3.58168803     0.14447952    -0.23848049
H    -0.73086249    -0.38168078    -0.69910623
H    -0.50215381     0.53640094     0.78744038
6
AU Step:         86 Time:      711.0616347444
C    -2.46310194     0.31776654     0.17985025
N    -1.12801497     0.14386915     0.08178968
H    -3.42845651     0.76443803     0.75872622
H    -3.58354359     0.14074328    -0.24449948
H    -0.73398481    -0.38077049    -0.69812530
H    -0.50551726     0.53632734     0.78694146
6
AU Step:         87 Time:      719.3297932879
C    -2.46124717     0.31753262     0.17970958
N    -1.12910474     0.14400855     0.08187154
H    -3.42775318     0.76849876     0.76519921
H    -3.58483997     0.13671197    -0.25090714
H    -0.73705704    -0.37990759    -0.69721401
H    -0.50881077     0.53628545     0.78650353
6
AU Step:         88 Time:      727.5979518314
C    -2.45945257     0.31730675     0.17957318
N    -1.13024687     0.14415464     0.08195733
H    -3.42636111     0.77266742     0.77193217
H    -3.58554218     0.13240488    -0.25766844
H    -0.74006143    -0.37910684    -0.69639347
H    -0.51201053     0.53628464     0.78614468
6
AU Step:         89 Time:      735.8661103750
C    -2.45772767     0.31709017     0.17944175
N    -1.13143955     0.14430719     0.08204689
H    -3.42426106     0.77691826     0.77888693
H    -3.58561976     0.12784130    -0.26474886
H    -0.74298119    -0.37838185    -0.69568313
H    -0.51509421     0.53633346     0.78588150
6
AU Step:         90 Time:      744.1342689185
C    -2.45608132     0.31688403     0.17931595
N    -1.13268076     0.14446592     0.08214009
H    -3.42143799     0.78122674     0.78602667
H    -3.58504681     0.12304049    -0.27211464
H    -0.74580077    -0.37774480    -0.69510030