           6
AU Step:          0 Time:        0.0000000000
C         -4.6519303176         0.5998128696         0.3398868982
N         -2.2608770381         0.2887926719         0.1639860874
H         -5.4359572810         1.6738523232         1.9355499129
H         -5.9049774807        -0.2096157926        -1.1054962128
H         -1.4584057807        -0.7055453144        -1.3031360550
H         -1.0294464523         1.0187814049         1.4814502350
           6
AU Step:          1 Time:        8.2681585435
C         -4.6523385783         0.5998659729         0.3399169833
N         -2.2605410360         0.2887489320         0.1639612850
H         -5.4359349201         1.6737764412         1.9354330762
H         -5.9049196255        -0.2095501670        -1.1053853970
H         -1.4583442729        -0.7055374435        -1.3031149107
H         -1.0293925050         1.0187588313         1.4814212776
           6
AU Step:          2 Time:       16.5363170871
C         -4.6535609428         0.6000249683         0.3400070604
N         -2.2595349502         0.2886179624         0.1638870197
H         -5.4358696515         1.6735509317         1.9350857072
H         -5.9047487926        -0.2093548360        -1.1050557555
H         -1.4581587688        -0.7055149313        -1.3030530893
H         -1.0292292193         1.0186918921         1.4813358323
           6
AU Step:          3 Time:       24.8044756306
C         -4.6555902774         0.6002889279         0.3401566043
N         -2.2578644431         0.2884005011         0.1637637106
H         -5.4357668935         1.6731821730         1.9345171819
H         -5.9044731410        -0.2090344119        -1.1045156613
H         -1.4578463257        -0.7054810655        -1.3029554031
H         -1.0289522798         1.0185829134         1.4811981450
           6
AU Step:          4 Time:       33.0726341742
C         -4.6584149326         0.6006563362         0.3403647576
N         -2.2555387540         0.2880977524         0.1635920414
H         -5.4356355937         1.6726807033         1.9337429928
H         -5.9041061522        -0.2085965196        -1.1037789568
H         -1.4574020709        -0.7054412691        -1.3028297844
H         -1.0285545533         1.0184357242         1.4810152115
           6
AU Step:          5 Time:       41.3407927177
C         -4.6620189314         0.6011251147         0.3406303438
N         -2.2525705435         0.2877113667         0.1633729487
H         -5.4354881234         1.6720611254         1.9327846099
H         -5.9036664781        -0.2080517285        -1.1028648229
H         -1.4568192759        -0.7054030158        -1.3026871618
H         -1.0280261921         1.0182555989         1.4807966759
           6
AU Step:          6 Time:       49.6089512612
C         -4.6663822232         0.6016926546         0.3409518875
N         -2.2489756840         0.2872434141         0.1631076066
H         -5.4353401199         1.6713419567         1.9316692618
H         -5.9031777266        -0.2074134540        -1.1017975997
H         -1.4560894566        -0.7053757163        -1.3025412899
H         -1.0273547927         1.0180491682         1.4805546711
           6
AU Step:          7 Time:       57.8771098048
C         -4.6714810046         0.6023558591         0.3413276364
N         -2.2447729964         0.2866963484         0.1627974077
H         -5.4352102789         1.6705454317         1.9304296562
H         -5.9026681695        -0.2066978264        -1.1006065359
H         -1.4552025128        -0.7053705565        -1.3024085213
H         -1.0265255917         1.0178243148         1.4803036179
           6
AU Step:          8 Time:       66.1452683483
C         -4.6772880825         0.6031111916         0.3417555888
N         -2.2399839526         0.2860729685         0.1624439414
H         -5.4351201000         1.6696972444         1.9291036095
H         -5.9021703849        -0.2059235204        -1.0993254687
H         -1.4541468937        -0.7054003084        -1.3023075307
H         -1.0255217150         1.0175900402         1.4800599781
           6
AU Step:          9 Time:       74.4134268919
C         -4.6837732838         0.6039547316         0.3422335228
N         -2.2346323421         0.2853763710         0.1620489711
H         -5.4350935833         1.6688262332         1.9277335993
H         -5.9017208286        -0.2051115503        -1.0979924314
H         -1.4529097948        -0.7054790775        -1.3022589780
H         -1.0243244713         1.0173563098         1.4798419372
           6
AU Step:         10 Time:       82.6815854354
C         -4.6909038906         0.6048822199         0.3427590299
N         -2.2287439226         0.2846099151         0.1616144038
H         -5.4351568628         1.6679640365         1.9263662093
H         -5.9013592841        -0.2042849626        -1.0966491530
H         -1.4514773948        -0.7056221058        -1.3022851429
H         -1.0229136967         1.0171338497         1.4796691214
           6
AU Step:         11 Time:       90.9497439789
C         -4.6986450937         0.6058891281         0.3433295469
N         -2.2223460535         0.2837771683         0.1611422648
H         -5.4353378036         1.6671446163         1.9250514902
H         -5.9011282927        -0.2034685732        -1.0953404984
H         -1.4498351254        -0.7058454328        -1.3024094645
H         -1.0212681455         1.0169339363         1.4795621823
           6
AU Step:         12 Time:       99.2179025225
C         -4.7069604618         0.6069707176         0.3439423915
N         -2.2154673255         0.2828818598         0.1606346708
H         -5.4356655400         1.6664037510         1.9238422046
H         -5.9010724702        -0.2026885897        -1.0941137984
H         -1.4479679510        -0.7061655704        -1.3026560620
H         -1.0193659197         1.0167681569         1.4795423576
           6
AU Step:         13 Time:      107.4860610660
C         -4.7158124100         0.6081220997         0.3445947951
N         -2.2081371937         0.2819278311         0.1600938026
H         -5.4361699696         1.6657784540         1.9227929702
H         -5.9012377445        -0.2019721861        -1.0930180797
H         -1.4458606833        -0.7065991351        -1.3030492022
H         -1.0171849274         1.0166481565         1.4796310060
           6
AU Step:         14 Time:      115.7542196095
C         -4.7251626585         0.6093382960         0.3452839382
N         -2.2003856242         0.2809189903         0.1595218789
H         -5.4368812119         1.6653063203         1.9219592948
H         -5.9016705363        -0.2013470302        -1.0921032071
H         -1.4434983074        -0.7071624680        -1.3036127446
H         -1.0147033716         1.0165853651         1.4798491111
           6
AU Step:         15 Time:      124.0223781531
C         -4.7349726715         0.6106142945         0.3460069815
N         -2.1922427601         0.2798592687         0.1589211317
H         -5.4378290472         1.6650248233         1.9213965357
H         -5.9024168891        -0.2008407612        -1.0914189424
H         -1.4408663176        -0.7078712378        -1.3043695583
H         -1.0119002525         1.0165907102         1.4802167622
           6
AU Step:         16 Time:      132.2905366966
C         -4.7452040752         0.6119451050         0.3467610978
N         -2.1837386093         0.2787525795         0.1582937826
H         -5.4390423345         1.6649705539         1.9211587689
H         -5.9035215610        -0.2004804294        -1.0910139328
H         -1.4379510575        -0.7087400295        -1.3053409218
H         -1.0087558748         1.0166743225         1.4807526282
           6
AU Step:         17 Time:      140.5586952402
C         -4.7558190435         0.6133258083         0.3475434995
N         -2.1749027626         0.2776027810         0.1576420219
H         -5.4405484377         1.6651784422         1.9212976214
H         -5.9050271023        -0.2002919035        -1.0909346432
H         -1.4347400431        -0.7097819439        -1.3065459434
H         -1.0052523457         1.0168452396         1.4814734337
           6
AU Step:         18 Time:      148.8268537837
C         -4.7667806479         0.6147516036         0.3483514650
N         -2.1657641420         0.2764136451         0.1569679894
H         -5.4423726671         1.6656809649         1.9218610668
H         -5.9069729507        -0.2002992898        -1.0912242666
H         -1.4312222760        -0.7110082003        -1.3080010021
H         -1.0013740478         1.0171111048         1.4823934725
           6
AU Step:         19 Time:      157.0950123272
C         -4.7780531686         0.6162178457         0.3491823615
N         -2.1563507840         0.2751888265         0.1562737594
H         -5.4445377492         1.6665074859         1.9228921712
H         -5.9093945685        -0.2005244153        -1.0919215688
H         -1.4273885053        -0.7124276410        -1.3097192986
H         -0.9971080821         1.0174777870         1.4835241937
           6
AU Step:         20 Time:      165.3631708708
C         -4.7887389969         0.6176078697         0.3499700670
N         -2.1472294772         0.2740020018         0.1556010327
H         -5.4486774488         1.6686016354         1.9256671279
H         -5.9142783849        -0.2014408288        -1.0940354071
H         -1.4228688833        -0.7142145544        -1.3119297613
H         -0.9920238975         1.0180158631         1.4850356234
           6
AU Step:         21 Time:      173.6313294143
C         -4.7992803914         0.6189792158         0.3507471972
N         -2.1380753437         0.2728108999         0.1549258431
H         -5.4575208733         1.6734289484         1.9321496405
H         -5.9248860831        -0.2037329926        -1.0990900834
H         -1.4150716519        -0.7174202237        -1.3159418994
H         -0.9831933663         1.0190586515         1.4878349581
           6
AU Step:         22 Time:      181.8994879579
C         -4.8100522021         0.6203805378         0.3515413213
N         -2.1287146803         0.2715930042         0.1542354985
H         -5.4666873294         1.6785579110         1.9390679421
H         -5.9359423848        -0.2062264648        -1.1045238512
H         -1.4069808161        -0.7207931583        -1.3201780629
H         -0.9740089198         1.0201834757         1.4908096999
           6
AU Step:         23 Time:      190.1676465014
C         -4.8210368485         0.6218095475         0.3523511418
N         -2.1191644142         0.2703505186         0.1535312482
H         -5.4761380573         1.6839378565         1.9463470209
H         -5.9473865757        -0.2088835254        -1.1102690254
H         -1.3986262749        -0.7243004571        -1.3245901421
H         -0.9645143953         1.0213670175         1.4939171668
           6
AU Step:         24 Time:      198.4358050449
C         -4.8322179454         0.6232641123         0.3531754494
N         -2.1094404866         0.2690855180         0.1528142671
H         -5.4858332900         1.6895157688         1.9539082801
H         -5.9591558645        -0.2116645077        -1.1162545644
H         -1.3900388848        -0.7279077422        -1.3291278193
H         -0.9547552166         1.0225848284         1.4971126806
           6
AU Step:         25 Time:      206.7039635885
C         -4.8435802093         0.6247422428         0.3540131154
N         -2.0995578989         0.2677999535         0.1520856591
H         -5.4957328577         1.6952372090         1.9616709147
H         -5.9711863879        -0.2145285086        -1.1224073209
H         -1.3812500203        -0.7315797530        -1.3337394598
H         -0.9447776964         1.0238117761         1.5003503723
           6
AU Step:         26 Time:      214.9721221320
C         -4.8551093615         0.6262420797         0.3548630848
N         -2.0895307644         0.2664956599         0.1513464609
H         -5.5057967546         1.7010471923         1.9695532351
H         -5.9834141690        -0.2174340689        -1.1286532527
H         -1.3722911579        -0.7352809372        -1.3383729787
H         -0.9346283616         1.0250224927         1.5035839719
           6
AU Step:         27 Time:      223.2402806756
C         -4.8667920260         0.6277618814         0.3557243685
N         -2.0793723720         0.2651743639         0.1505976475
H         -5.5159856545         1.7068910202         1.9774739115
H         -5.9957760022        -0.2203398272        -1.1349185674
H         -1.3631934644        -0.7389760269        -1.3429767049
H         -0.9243532996         1.0261918056         1.5067675800
           6
AU Step:         28 Time:      231.5084392191
C         -4.8786156403         0.6293000111         0.3565960385
N         -2.0690952396         0.2638376900         0.1498401364
H         -5.5262613689         1.7127150469         1.9853531052
H         -6.0082102478        -0.2232051098        -1.1411307716
H         -1.3539874426        -0.7426305445        -1.3475001563
H         -0.9139975760         1.0272951383         1.5098563695
           6
AU Step:         29 Time:      239.7765977626
C         -4.8905683317         0.6308549234         0.3574772157
N         -2.0587112120         0.2624871749         0.1490747938
H         -5.5365872546         1.7184673623         1.9931135394
H         -6.0206575521        -0.2259904972        -1.1472196347
H         -1.3447025488        -0.7462113693        -1.3518948450
H         -0.9036046093         1.0283089210         1.5128073370
           6
AU Step:         30 Time:      248.0447563062
C         -4.9026388383         0.6324251523         0.3583670661
N         -2.0482315151         0.2611242744         0.1483024395
H         -5.5469285492         1.7240983991         2.0006813933
H         -6.0330614494        -0.2286582907        -1.1531180260
H         -1.3353669071        -0.7496871714        -1.3561149425
H         -0.8932156999         1.0292109300         1.5155798901
           6
AU Step:         31 Time:      256.3129148497
C         -4.9148164238         0.6340093002         0.3592647942
N         -2.0376668243         0.2597503725         0.1475238521
H         -5.5572526493         1.7295614520         2.0079870861
H         -6.0453688739        -0.2311729300        -1.1587626446
H         -1.3260070395        -0.7530288249        -1.3601178962
H         -0.8828695796         1.0299806084         1.5181364143
           6
AU Step:         32 Time:      264.5810733933
C         -4.9270907986         0.6356060274         0.3601696376
N         -2.0270273300         0.2583667895         0.1467397741
H         -5.5675293342         1.7348131213         2.0149659489
H         -6.0575305851        -0.2335013501        -1.1640946434
H         -1.3166476352        -0.7562097739        -1.3638649764
H         -0.8726020215         1.0305993489         1.5204427693
           6
AU Step:         33 Time:      272.8492319368
C         -4.9394520485         0.6372140426         0.3610808619
N         -2.0163227998         0.2569747911         0.1459509163
H         -5.5777309366         1.7398136781         2.0215587803
H         -6.0695015030        -0.2356132809        -1.1690601498
H         -1.3073113599        -0.7592063477        -1.3673217463
H         -0.8624455120         1.0310507386         1.5224687208
           6
AU Step:         34 Time:      281.1173904803
C         -4.9518905754         0.6388320939         0.3619977577
N         -2.0055626301         0.2555755976         0.1451579592
H         -5.5878324636         1.7445273605         2.0277122923
H         -6.0812409630        -0.2374814859        -1.1736106922
H         -1.2980187210        -0.7619980391        -1.3704584437
H         -0.8524289958         1.0313207576         1.5241883185
           6
AU Step:         35 Time:      289.3855490239
C         -4.9643970300         0.6404589628         0.3629196330
N         -1.9947559152         0.2541703842         0.1443615652
H         -5.5978116794         1.7489226143         2.0333794861
H         -6.0927129096        -0.2390819731        -1.1777035420
H         -1.2887878954        -0.7645676831        -1.3732503555
H         -0.8425776156         1.0313979899         1.5255801635
           6
AU Step:         36 Time:      297.6537075674
C         -4.9769622661         0.6420934591         0.3638458097
N         -1.9839114873         0.2527602936         0.1435623762
H         -5.6076491577         1.7529722578         2.0385199241
H         -6.1038860336        -0.2403941634        -1.1813019667
H         -1.2796346715        -0.7669016609        -1.3756780467
H         -0.8329125721         1.0312737228         1.5266276826
           6
AU Step:         37 Time:      305.9218661109
C         -4.9895772842         0.6437344138         0.3647756192
N         -1.9730379761         0.2513464493         0.1427610156
H         -5.6173283114         1.7566535725         2.0430999963
H         -6.1147338589        -0.2414009775        -1.1843754674
H         -1.2705723294        -0.7689900912        -1.3777274600
H         -0.8234509616         1.0309420319         1.5273192353
           6
AU Step:         38 Time:      314.1900246545
C         -5.0022332215         0.6453806717         0.3657084058
N         -1.9621438072         0.2499299352         0.1419580995
H         -5.6268353598         1.7599485356         2.0470928903
H         -6.1252347576        -0.2420889645        -1.1868998264
H         -1.2616117646        -0.7708267416        -1.3793903636
H         -0.8142058249         1.0303999596         1.5276484359
           6
AU Step:         39 Time:      322.4581831980
C         -5.0149212872         0.6470310881         0.3666435189
N         -1.9512372710         0.2485118244         0.1411542307
H         -5.6361593316         1.7628437614         2.0504788884
H         -6.1353719934        -0.2424483368        -1.1888573423
H         -1.2527613646        -0.7724092606        -1.3806641372
H         -0.8051860251         1.0296474805         1.5276140565
           6
AU Step:         40 Time:      330.7263417416
C         -5.0276327415         0.6486845252         0.3675803126
N         -1.9403265448         0.2470931752         0.1403500041
H         -5.6452920066         1.7653305836         2.0532453295
H         -6.1451336771        -0.2424730376        -1.1902368162
H         -1.2440270305        -0.7737390771        -1.3815518614
H         -0.7963962791         1.0286874833         1.5272200702
           6
AU Step:         41 Time:      338.9945002851
C         -5.0403588644         0.6503398479         0.3685181421
N         -1.9294197208         0.2456750362         0.1395460086
H         -5.6542278634         1.7674050795         2.0553866488
H         -6.1545127278        -0.2421607812        -1.1910335898
H         -1.2354122160        -0.7748213915        -1.3820623115
H         -0.7878371959         1.0275257616         1.5264756590
           6
AU Step:         42 Time:      347.2626588286
C         -5.0530909266         0.6519959210         0.3694563612
N         -1.9185248252         0.2442584483         0.1387428285
H         -5.6629640231         1.7690679913         2.0569044146
H         -6.1635068039        -0.2415129978        -1.1912495856
H         -1.2269180154        -0.7756651876        -1.3822098254
H         -0.7795053796         1.0261710490         1.5253950926
           6
AU Step:         43 Time:      355.5308173722
C         -5.0658201846         0.6536516070         0.3703943237
N         -1.9076498169         0.2428444438         0.1379410446
H         -5.6715001704         1.7703247259         2.0578072415
H         -6.1721182162        -0.2405348358        -1.1908932494
H         -1.2185432632        -0.7762830639        -1.3820141486
H         -0.7713935918         1.0246348961         1.5239975804
           6
AU Step:         44 Time:      363.7989759157
C         -5.0785378558         0.6553057633         0.3713313810
N         -1.8968026020         0.2414340488         0.1371412339
H         -5.6798384656         1.7711853099         2.0581107259
H         -6.1803538257        -0.2392351546        -1.1899794968
H         -1.2102846422        -0.7766910931        -1.3815002346
H         -0.7634909163         1.0229315608         1.5223071028
           6
AU Step:         45 Time:      372.0671344593
C         -5.0912351079         0.6569572412         0.3722668807
N         -1.8859910321         0.2400282836         0.1363439712
H         -5.6879834538         1.7716643208         2.0578373437
H         -6.1882249206        -0.2376264776        -1.1885296199
H         -1.2021368189        -0.7769086221        -1.3806979530
H         -0.7557829890         1.0210778494         1.5203521339
           6
AU Step:         46 Time:      380.3352930028
C         -5.1039030507         0.6586048846         0.3732001665
N         -1.8752228989         0.2386281612         0.1355498277
H         -5.6959419615         1.7717807837         2.0570163093
H         -6.1957470717        -0.2357249244        -1.1865711677
H         -1.1940926076        -0.7769580384        -1.3796417319
H         -0.7482522628         1.0190929407         1.5181653201
           6
AU Step:         47 Time:      388.6034515463
C         -5.1165327329         0.6602475296         0.3741305778
N         -1.8645059195         0.2372346861         0.1347593698
H         -5.7037229791         1.7715580417         2.0556833878
H         -6.2029399619        -0.2335501181        -1.1841377799
H         -1.1861431643        -0.7768644811        -1.3783701242
H         -0.7408783279         1.0169981651         1.5157830876
           6
AU Step:         48 Time:      396.8716100899
C         -5.1291151443         0.6618840048         0.3750574497
N         -1.8538477175         0.2358488519         0.1339731587
H         -5.7113375341         1.7710235973         2.0538806616
H         -6.2098271892        -0.2311250687        -1.1812689758
H         -1.1782781989        -0.7766555091        -1.3769253101
H         -0.7336382776         1.0148167412         1.5132451767
           6
AU Step:         49 Time:      405.1397686334
C         -5.1416412213         0.6635131326         0.3759801135
N         -1.8432557966         0.2344716379         0.1331917484
H         -5.7187985455         1.7702089082         2.0516562362
H         -6.2164360359        -0.2284760254        -1.1780098843
H         -1.1704862253        -0.7763607198        -1.3753525234
H         -0.7265071258         1.0125734786         1.5105941199
           6
AU Step:         50 Time:      413.4079271770
C         -5.1541018629         0.6651337323         0.3768978971
N         -1.8327375057         0.2331040042         0.1324156822
H         -5.7261206637         1.7691491384         2.0490638704
H         -6.2227972013        -0.2256322910        -1.1744109088
H         -1.1627548263        -0.7760113026        -1.3736993837
H         -0.7194582649         1.0102944339         1.5078746342
           6
AU Step:         51 Time:      421.6760857205
C         -5.1664879504         0.6667446197         0.3778101286
N         -1.8223000008         0.2317468872         0.1316454910
H         -5.7333200830         1.7678828747         2.0461625262
H         -6.2289444791        -0.2226259740        -1.1705273216
H         -1.1550709486        -0.7756395609        -1.3720151840
H         -0.7124639779         1.0080065332         1.5051329553
           6
AU Step:         52 Time:      429.9442442640
C         -5.1787903745         0.6683446095         0.3787161377
N         -1.8119502018         0.2304011938         0.1308816898
H         -5.7404143403         1.7664517723         2.0430158270
H         -6.2349143977        -0.2194917017        -1.1664187715
H         -1.1474212040        -0.7752783819        -1.3703500915
H         -0.7054959727         1.0057371559         1.5024161039
           6
AU Step:         53 Time:      438.2124028076
C         -5.1910000711         0.6699325243         0.3796152567
N         -1.8016947403         0.2290677948         0.1301247735
H         -5.7474220835         1.7649001168         2.0396914404
H         -6.2407458017        -0.2162663057        -1.1621486849
H         -1.1397922230        -0.7749606795        -1.3687543011
H         -0.6985259827         1.0035136880         1.4997711177
           6
AU Step:         54 Time:      446.4805613511
C         -5.2031080634         0.6715071985         0.3805068243
N         -1.7915399080         0.2277475187         0.1293752129
H         -5.7543628179         1.7632743433         2.0362603291
H         -6.2464793787        -0.2129884200        -1.1577835896
H         -1.1321709905        -0.7747188000        -1.3672771471
H         -0.6915263666         1.0013630568         1.4972442277
           6
AU Step:         55 Time:      454.7487198947
C         -5.2151055138         0.6730674853         0.3813901899
N         -1.7814916011         0.2264411431         0.1286334514
H         -5.7612566249         1.7616224731         2.0327959040
H         -6.2521571274        -0.2096980286        -1.1533923226
H         -1.1245451963        -0.7745839130        -1.3659661893
H         -0.6844707282         0.9993112502         1.4948800155
           6
AU Step:         56 Time:      463.0168784382
C         -5.2269837830         0.6746122640         0.3822647171
N         -1.7715552652         0.2251493885         0.1278998999
H         -5.7681238569         1.7599934858         2.0293730671
H         -6.2578217650        -0.2064359499        -1.1490451378
H         -1.1169035819        -0.7745854003        -1.3648662918
H         -0.6773345314         0.9973828318         1.4927205685
           6
AU Step:         57 Time:      471.2850369817
C         -5.2387344955         0.6761404489         0.3831297892
N         -1.7617358408         0.2238729105         0.1271749328
H         -5.7749848099         1.7584366225         2.0260671507
H         -6.2635160863        -0.2032432668        -1.1448127192
H         -1.1092362779        -0.7747502525        -1.3640187138
H         -0.6700957041         0.9956004613         1.4908046438
           6
AU Step:         58 Time:      479.5531955253
C         -5.2503496116         0.6776509984         0.3839848141
N         -1.7520377131         0.2226122931         0.1264588835
H         -5.7818593784         1.7570006301         2.0229527695
H         -6.2692822739        -0.2001607056        -1.1407651057
H         -1.1015351177        -0.7751024973        -1.3634602484
H         -0.6627351992         0.9939844430         1.4891668811
           6
AU Step:         59 Time:      487.8213540688
C         -5.2618215046         0.6791429252         0.3848292301
N         -1.7424646669         0.2213680431         0.1257520416
H         -5.7887666968         1.7557329560         2.0201025927
H         -6.2751611760        -0.1972279733        -1.1369705448
H         -1.0937939154        -0.7756626813        -1.3632224392
H         -0.6552375094         0.9925523046         1.4878370709
           6
AU Step:         60 Time:      496.0895126123
C         -5.2731430376         0.6806153053         0.3856625111
N         -1.7330198552         0.2201405861         0.1250546502
H         -5.7957247679         1.7546789286         2.0175860940
H         -6.2811915575        -0.1944830741        -1.1334943183
H         -1.0860086813        -0.7764474027        -1.3633308692
H         -0.6475910868         0.9913184167         1.4868394974
           6
AU Step:         61 Time:      504.3576711559
C         -5.2843076467         0.6820672916         0.3864841734
N         -1.7237057579         0.2189302591         0.1243669014
H         -5.8027501434         1.7538808639         2.0154681824
H         -6.2874093774        -0.1919615755        -1.1303974594
H         -1.0781778601        -0.7774689460        -1.3638046327
H         -0.6397887299         0.9902937260         1.4861924713
           6
AU Step:         62 Time:      512.6258296994
C         -5.2953094185         0.6834981213         0.3872937804
N         -1.7145241706         0.2177373110         0.1236889366
H         -5.8098575338         1.7533772837         2.0138080176
H         -6.2938470408        -0.1896959536        -1.1277356397
H         -1.0703024489        -0.7787349889        -1.3646558660
H         -0.6318278416         0.9894854943         1.4859078796
           6
AU Step:         63 Time:      520.8939882430
C         -5.3061431609         0.6849071260         0.3880909478
N         -1.7054762000         0.2165619010         0.1230208448
H         -5.8170595098         1.7532021024         2.0126577591
H         -6.3005327244        -0.1877149109        -1.1255579913
H         -1.0623860560        -0.7802484272        -1.3658894890
H         -0.6237105574         0.9888971614         1.4859909557
           6
AU Step:         64 Time:      529.1621467865
C         -5.3168044673         0.6862937403         0.3888753492
N         -1.6965622712         0.2154040993         0.1223626634
H         -5.8243662199         1.7533838956         2.0120614472
H         -6.3074897639        -0.1860427682        -1.1239060583
H         -1.0544349027        -0.7820073119        -1.3675031044
H         -0.6154437791         0.9885282831         1.4864401793
           6
AU Step:         65 Time:      537.4303053300
C         -5.3272897683         0.6876575089         0.3896467190
N         -1.6877821482         0.2142638897         0.1217143788
H         -5.8317851590         1.7539452706         2.0120540357
H         -6.3147361317        -0.1846989321        -1.1228128827
H         -1.0464577583        -0.7840048992        -1.3694870690