           6
ANG Step:          0 Time:        0.0000000000
C         -2.4616955000         0.3174073000         0.1798604000
N         -1.1964046000         0.1528225000         0.0867777000
H         -2.8765847000         0.8857645000         1.0242489000
H         -3.1247795000        -0.1109239000        -0.5850034000
H         -0.7717551000        -0.3733585000        -0.6895899000
H         -0.5447596000         0.5391159000         0.7839497000
           6
ANG Step:          1 Time:        8.2681585435
C         -2.4619115423         0.3174354011         0.1798763204
N         -1.1962267953         0.1527993538         0.0867645751
H         -2.8765728671         0.8857243449         1.0241870727
H         -3.1247488844        -0.1108891724        -0.5849447588
H         -0.7717225515        -0.3733543349        -0.6895787109
H         -0.5447310524         0.5391039546         0.7839343765
           6
ANG Step:          2 Time:       16.5363170871
C         -2.4625583897         0.3175195378         0.1799239871
N         -1.1956943977         0.1527300477         0.0867252756
H         -2.8765383284         0.8856050105         1.0240032529
H         -3.1246584835        -0.1107858077        -0.5847703200
H         -0.7716243869        -0.3733424219        -0.6895459965
H         -0.5446446453         0.5390685319         0.7838891607
           6
ANG Step:          3 Time:       24.8044756306
C         -2.4636322673         0.3176592192         0.1800031224
N         -1.1948104034         0.1526149721         0.0866600232
H         -2.8764839512         0.8854098717         1.0237024023
H         -3.1245126150        -0.1106162466        -0.5844845145
H         -0.7714590492        -0.3733245010        -0.6894943031
H         -0.5444980952         0.5390108629         0.7838162997
           6
ANG Step:          4 Time:       33.0726341742
C         -2.4651270105         0.3178536433         0.1801132723
N         -1.1935797017         0.1524547644         0.0865691798
H         -2.8764144704         0.8851445054         1.0232927191
H         -3.1243184128        -0.1103845240        -0.5840946672
H         -0.7712239597        -0.3733034416        -0.6894278286
H         -0.5442876274         0.5389329737         0.7837194955
           6
ANG Step:          5 Time:       41.3407927177
C         -2.4670341645         0.3181017102         0.1802538145
N         -1.1920089924         0.1522502979         0.0864532410
H         -2.8763364324         0.8848166389         1.0227855647
H         -3.1240857473        -0.1100962330        -0.5836109284
H         -0.7709155578        -0.3732831989        -0.6893523560
H         -0.5440080307         0.5388376555         0.7836038515
           6
ANG Step:          6 Time:       49.6089512612
C         -2.4693431191         0.3184020394         0.1804239681
N         -1.1901066747         0.1520026680         0.0863128280
H         -2.8762581124         0.8844360713         1.0221953479
H         -3.1238271112        -0.1097584726        -0.5830461782
H         -0.7705293541        -0.3732687525        -0.6892751639
H         -0.5436527414         0.5387284170         0.7834757880
           6
ANG Step:          7 Time:       57.8771098048
C         -2.4720412780         0.3187529921         0.1806228058
N         -1.1878827082         0.1517131733         0.0861486778
H         -2.8761894035         0.8840145684         1.0215393768
H         -3.1235574652        -0.1093797788        -0.5824158944
H         -0.7700600036        -0.3732660221        -0.6892049057
H         -0.5432139471         0.5386094297         0.7833429364
           6
ANG Step:          8 Time:       66.1452683483
C         -2.4751142513         0.3191526968         0.1808492685
N         -1.1853484553         0.1513832949         0.0859616315
H         -2.8761416829         0.8835657270         1.0208376632
H         -3.1232940489        -0.1089700337        -0.5817379828
H         -0.7695013941        -0.3732817661        -0.6891514638
H         -0.5426827185         0.5384854569         0.7832140078
           6
ANG Step:          9 Time:       74.4134268919
C         -2.4785460720         0.3195990790         0.1811021803
N         -1.1825165050         0.1510146714         0.0857526222
H         -2.8761276509         0.8831048077         1.0201126850
H         -3.1230561539        -0.1085403576        -0.5810325699
H         -0.7688467496        -0.3733234489        -0.6891257709
H         -0.5420491644         0.5383617722         0.7830986255
           6
ANG Step:         10 Time:       82.6815854354
C         -2.4823194266         0.3200898847         0.1813802666
N         -1.1794004876         0.1506090804         0.0855226591
H         -2.8761611369         0.8826485529         1.0193890934
H         -3.1228648328        -0.1081029463        -0.5803217376
H         -0.7680887561        -0.3733991362        -0.6891396167
H         -0.5413026146         0.5382440513         0.7830071753
           6
ANG Step:         11 Time:       90.9497439789
C         -2.4864158948         0.3206227175         0.1816821713
N         -1.1760148811         0.1501684098         0.0852728139
H         -2.8762568867         0.8822149344         1.0186933740
H         -3.1227425975        -0.1076709316        -0.5796292274
H         -0.7672197046        -0.3735173158        -0.6892054049
H         -0.5404318264         0.5381382618         0.7829505856
           6
ANG Step:         12 Time:       99.2179025225
C         -2.4908161981         0.3211950700         0.1820064746
N         -1.1723748150         0.1496946329         0.0850042067
H         -2.8764303173         0.8818228853         1.0180534476
H         -3.1227130575        -0.1072581821        -0.5789800857
H         -0.7662316384        -0.3736867254        -0.6893358987
H         -0.5394252119         0.5380505350         0.7829400948
           6
ANG Step:         13 Time:      107.4860610660
C         -2.4955004474         0.3218043552         0.1823517118
N         -1.1684958763         0.1491897827         0.0847179916
H         -2.8766972499         0.8814919924         1.0174982167
H         -3.1228005169        -0.1068790777        -0.5784002564
H         -0.7651165204        -0.3739161579        -0.6895439395
H         -0.5382710805         0.5379870336         0.7829870055
           6
ANG Step:         14 Time:      115.7542196095
C         -2.5004483858         0.3224479385         0.1827163906
N         -1.1643939224         0.1486559271         0.0844153426
H         -2.8770736231         0.8812421500         1.0170570547
H         -3.1230295404        -0.1065482594        -0.5779161266
H         -0.7638664049        -0.3742142609        -0.6898421533
H         -0.5369578977         0.5379538058         0.7831024217
           6
ANG Step:         15 Time:      124.0223781531
C         -2.5056396210         0.3231231679         0.1830990086
N         -1.1600849043         0.1480951466         0.0840974409
H         -2.8775751960         0.8810931882         1.0167592554
H         -3.1234244933        -0.1062803534        -0.5775540294
H         -0.7624736159        -0.3745893257        -0.6902426418
H         -0.5354745510         0.5379566343         0.7832969743
           6
ANG Step:         16 Time:      132.2905366966
C         -2.5110538467         0.3238274025         0.1834980698
N         -1.1555847016         0.1475095119         0.0837654620
H         -2.8782172400         0.8810644701         1.0166334346
H         -3.1240090605        -0.1060896740        -0.5773397075
H         -0.7609309267        -0.3750490704        -0.6907566652
H         -0.5338106180         0.5380008800         0.7835805424
           6
ANG Step:         17 Time:      140.5586952402
C         -2.5166710460         0.3245580392         0.1839120989
N         -1.1509089729         0.1469010648         0.0834205651
H         -2.8790142355         0.8811744798         1.0167069122
H         -3.1248057587        -0.1059899104        -0.5772977492
H         -0.7592317311        -0.3756004278        -0.6913943352
H         -0.5319566302         0.5380913255         0.7839619763
           6
ANG Step:         18 Time:      148.8268537837
C         -2.5224716772         0.3253125376         0.1843396559
N         -1.1460730231         0.1462718011         0.0830638825
H         -2.8799795761         0.8814404034         1.0170050746
H         -3.1258354573        -0.1059938191        -0.5774510113
H         -0.7573702089        -0.3762493347        -0.6921643191
H         -0.5299043234         0.5382320153         0.7844488398
           6
ANG Step:         19 Time:      157.0950123272
C         -2.5284368383         0.3260884395         0.1847793474
N         -1.1410916886         0.1456236551         0.0826965118
H         -2.8811252882         0.8818777795         1.0175507115
H         -3.1271169222        -0.1061129503        -0.5778200078
H         -0.7553414648        -0.3770004704        -0.6930736025
H         -0.5276468716         0.5384260551         0.7850471917
           6
ANG Step:         20 Time:      165.3631708708
C         -2.5340915350         0.3268240085         0.1851961832
N         -1.1362649009         0.1449956144         0.0823405201
H         -2.8833159229         0.8829859557         1.0190191554
H         -3.1297013265        -0.1065978955        -0.5789386028
H         -0.7529497839        -0.3779460642        -0.6942433289
H         -0.5249564369         0.5387107928         0.7858470059
           6
ANG Step:         21 Time:      173.6313294143
C         -2.5396698008         0.3275496936         0.1856074227
N         -1.1314207421         0.1443653105         0.0819832252
H         -2.8879956616         0.8855404597         1.0224495533
H         -3.1353146787        -0.1078108563        -0.5816134223
H         -0.7488236667        -0.3796424314        -0.6963664610
H         -0.5202835211         0.5392626126         0.7873283499
           6
ANG Step:         22 Time:      181.8994879579
C         -2.5453699975         0.3282912413         0.1860276551
N         -1.1264672924         0.1437208278         0.0816179105
H         -2.8928463412         0.8882545898         1.0261105609
H         -3.1411654215        -0.1091303450        -0.5844888484
H         -0.7445421808        -0.3814273115        -0.6986081422
H         -0.5154233213         0.5398578439         0.7889025156
           6
ANG Step:         23 Time:      190.1676465014
C         -2.5511828220         0.3290474406         0.1864561937
N         -1.1214135092         0.1430633328         0.0812452374
H         -2.8978474510         0.8911015344         1.0299624835
H         -3.1472214266        -0.1105364009        -0.5875290637
H         -0.7401211480        -0.3832832941        -0.7009429139
H         -0.5103990353         0.5404841473         0.7905469162
           6
ANG Step:         24 Time:      198.4358050449
C         -2.5570996036         0.3298171632         0.1868923984
N         -1.1162678284         0.1423939233         0.0808658273
H         -2.9029779472         0.8940532384         1.0339637295
H         -3.1534494659        -0.1120080334        -0.5906964745
H         -0.7355768969        -0.3851921871        -0.7033441493
H         -0.5052347004         0.5411285850         0.7922379093
           6
ANG Step:         25 Time:      206.7039635885
C         -2.5631122547         0.3305993561         0.1873356722
N         -1.1110381882         0.1417136319         0.0804802646
H         -2.9082165728         0.8970808941         1.0380715388
H         -3.1598157447        -0.1135235973        -0.5939523730
H         -0.7309260301        -0.3871353316        -0.7057845243
H         -0.4999548241         0.5417778578         0.7939512219
           6
ANG Step:         26 Time:      214.9721221320
C         -2.5692132193         0.3313930356         0.1877854566
N         -1.1057320572         0.1410234294         0.0800890977
H         -2.9135421577         0.9001554049         1.0422426831
H         -3.1662864078        -0.1150611536        -0.5972575777
H         -0.7261852043        -0.3890939139        -0.7082364769
H         -0.4945840275         0.5424185414         0.7956623691
           6
ANG Step:         27 Time:      223.2402806756
C         -2.5753954191         0.3321972801         0.1882412284
N         -1.1003564674         0.1403242297         0.0796928427
H         -2.9189338913         0.9032478254         1.0464341246
H         -3.1728280082        -0.1165988147        -0.6005730395
H         -0.7213709123        -0.3910492711        -0.7106726639
H         -0.4891466988         0.5430373152         0.7973470620
           6
ANG Step:         28 Time:      231.5084392191
C         -2.5816522063         0.3330112232         0.1887024962
N         -1.0949180432         0.1396168923         0.0792919851
H         -2.9243715651         0.9063297676         1.0506036143
H         -3.1794079276        -0.1181150569        -0.6038603963
H         -0.7164992953        -0.3929831585        -0.7130663713
H         -0.4836666859         0.5436211737         0.7989815790
           6
ANG Step:         29 Time:      239.7765977626
C         -2.5879772982         0.3338340474         0.1891687952
N         -1.0894230525         0.1389022305         0.0788869832
H         -2.9298357885         0.9093737618         1.0547102592
H         -3.1859947573        -0.1195890205        -0.6070824839
H         -0.7115859412        -0.3948780494        -0.7153919404
H         -0.4781669648         0.5441576444         0.8005431637
           6
ANG Step:         30 Time:      248.0447563062
C         -2.5943647352         0.3346649767         0.1896396837
N         -1.0838774357         0.1381810146         0.0784782709
H         -2.9353081659         0.9123535782         1.0587149950
H         -3.1925586170        -0.1210007560        -0.6102037782
H         -0.7066457323        -0.3967173647        -0.7176251198
H         -0.4726693907         0.5446349670         0.8020103357
           6
ANG Step:         31 Time:      256.3129148497
C         -2.6008088359         0.3355032717         0.1901147409
N         -1.0782868421         0.1374539770         0.0780662603
H         -2.9407714444         0.9152445013         1.0625810011
H         -3.1990714256        -0.1223314458        -0.6131907817
H         -0.7016927037        -0.3984856915        -0.7197433917
H         -0.4671944597         0.5450422633         0.8033631900
           6
ANG Step:         32 Time:      264.5810733933
C         -2.6073041553         0.3363482233         0.1905935634
N         -1.0726566642         0.1367218165         0.0776513440
H         -2.9462096318         0.9180235649         1.0662740563
H         -3.2055071260        -0.1235635926        -0.6160123539
H         -0.6967399203        -0.4001689773        -0.7217262611
H         -0.4617611019         0.5453696866         0.8045836605
           6
ANG Step:         33 Time:      272.8492319368
C         -2.6138454470         0.3371991484         0.1910757626
N         -1.0669920708         0.1359852026         0.0772338985
H         -2.9516080873         0.9206697457         1.0697628324
H         -3.2118418629        -0.1246811783        -0.6186399868
H         -0.6917993762        -0.4017546958        -0.7235555050
H         -0.4563865086         0.5456085518         0.8056557478
           6
ANG Step:         34 Time:      281.1173904803
C         -2.6204276319         0.3380553842         0.1915609630
N         -1.0612980342         0.1352447813         0.0768142836
H         -2.9569535851         0.9231641189         1.0730191307
H         -3.2180541176        -0.1256697898        -0.6210480301
H         -0.6868819235        -0.4032319953        -0.7252153738
H         -0.4510859965         0.5457514397         0.8065657198
           6
ANG Step:         35 Time:      289.3855490239
C         -2.6270457627         0.3389162861         0.1920487983
N         -1.0555793670         0.1345011744         0.0763928501
H         -2.9622343587         0.9254899871         1.0760180804
H         -3.2241248103        -0.1265167312        -0.6232138729
H         -0.6819971810        -0.4045917923        -0.7266927898
H         -0.4458728706         0.5457923092         0.8073022524
           6
ANG Step:         36 Time:      297.6537075674
C         -2.6336949992         0.3397812244         0.1925389099
N         -1.0498407429         0.1337549866         0.0759699375
H         -2.9674401280         0.9276329661         1.0787382831
H         -3.2300373728        -0.1272111123        -0.6251180773
H         -0.6771535035        -0.4058268802        -0.7279774687
H         -0.4407583499         0.5457265499         0.8078565756
           6
ANG Step:         37 Time:      305.9218661109
C         -2.6403705793         0.3406495802         0.1930309439
N         -1.0440867286         0.1330068124         0.0755458757
H         -2.9725621156         0.9295810340         1.0811619529
H         -3.2357777947        -0.1277438954        -0.6267445038
H         -0.6723579186        -0.4069320299        -0.7290619715
H         -0.4357514813         0.5455510267         0.8082225296
           6
ANG Step:         38 Time:      314.1900246545
C         -2.6470678129         0.3415207423         0.1935245533
N         -1.0383217827         0.1322572255         0.0751209908
H         -2.9775930289         0.9313246534         1.0832749014
H         -3.2413346310        -0.1281079625        -0.6280803370
H         -0.6676161919        -0.4079039434        -0.7299419422
H         -0.4308591656         0.5452641743         0.8083967350
           6
ANG Step:         39 Time:      322.4581831980
C         -2.6537820480         0.3423941051         0.1940193939
N         -1.0325502924         0.1315067935         0.0746956018
H         -2.9825270622         0.9328567408         1.0850666944
H         -3.2466990251        -0.1282981341        -0.6291162098
H         -0.6629327620        -0.4087413764        -0.7306159941
H         -0.4260860932         0.5448659796         0.8083785422
           6
ANG Step:         40 Time:      330.7263417416
C         -2.6605086600         0.3432690663         0.1945151238
N         -1.0267765848         0.1307560767         0.0742700234
H         -2.9873598657         0.9341727104         1.0865306320
H         -3.2518646857        -0.1283112052        -0.6298461960
H         -0.6583107514        -0.4094450850        -0.7310857575
H         -0.4214347599         0.5443579709         0.8081700537
           6
ANG Step:         41 Time:      338.9945002851
C         -2.6672430341         0.3441450253         0.1950114017
N         -1.0210049420         0.1300056299         0.0738445673
H         -2.9920885175         0.9352704864         1.0876637694
H         -3.2568278655        -0.1281459663        -0.6302678304
H         -0.6537519879        -0.4100178211        -0.7313558761
H         -0.4169054881         0.5437432143         0.8077761282
           6
ANG Step:         42 Time:      347.2626588286
C         -2.6739805513         0.3450213815         0.1955078859
N         -1.0152396116         0.1292560038         0.0734195427
H         -2.9967114941         0.9361504614         1.0884669365
H         -3.2615873256        -0.1278031740        -0.6303821305
H         -0.6492570506        -0.4104643388        -0.7314339371
H         -0.4124964809         0.5430263313         0.8072043171
           6
ANG Step:         43 Time:      355.5308173722
C         -2.6807165845         0.3458975328         0.1960042343
N         -1.0094848051         0.1285077449         0.0729952569
H         -3.0012286287         0.9368154968         1.0889446919
H         -3.2661442888        -0.1272855530        -0.6301935654
H         -0.6448253226        -0.4107913048        -0.7313303894
H         -0.4082039076         0.5422134341         0.8064647855
           6
ANG Step:         44 Time:      363.7989759157
C         -2.6874464863         0.3467728746         0.1965001037
N         -1.0037447062         0.1277613960         0.0725720154
H         -3.0056410645         0.9372708982         1.0891052889
H         -3.2705023856        -0.1265977913        -0.6297100284
H         -0.6404550485        -0.4110072246        -0.7310584378
H         -0.4040219919         0.5413120679         0.8055702233
           6
ANG Step:         45 Time:      372.0671344593
C         -2.6941655827         0.3476467991         0.1969951488
N         -0.9980234698         0.1270174971         0.0721501221
H         -3.0099512066         0.9375243799         1.0889606212
H         -3.2746675896        -0.1257465161        -0.6289427866
H         -0.6361434062        -0.4111223360        -0.7306338887
H         -0.3999431324         0.5403311261         0.8045356983
           6
ANG Step:         46 Time:      380.3352930028
C         -2.7008691693         0.3485186944         0.1974890223
N         -0.9923252191         0.1262765842         0.0717298794
H         -3.0141626675         0.9375860094         1.0885261486
H         -3.2786481405        -0.1247402575        -0.6279064183
H         -0.6318865929        -0.4111484860        -0.7300749605
H         -0.3959580437         0.5392807577         0.8033784863
           6
ANG Step:         47 Time:      388.6034515463
C         -2.7075525093         0.3493879447         0.1979813748
N         -0.9866540379         0.1255391890         0.0713115871
H         -3.0182802047         0.9374681394         1.0878207969
H         -3.2824544541        -0.1235893996        -0.6266187250
H         -0.6276799287        -0.4110989776        -0.7294020547
H         -0.3920559255         0.5381722501         0.8021178631
           6
ANG Step:         48 Time:      396.8716100899
C         -2.7142108346         0.3502539301         0.1984718543
N         -0.9810139603         0.1248058371         0.0708955422
H         -3.0223096536         0.9371853235         1.0868668353
H         -3.2860990178        -0.1223061187        -0.6251006192
H         -0.6235179683        -0.4109883943        -0.7286374920
H         -0.3882246559         0.5370178904         0.8007748585
           6
ANG Step:         49 Time:      405.1397686334
C         -2.7208393491         0.3511160274         0.1989601069
N         -0.9754089572         0.1240770468         0.0704820376
H         -3.0262578508         0.9367542087         1.0856897200
H         -3.2895962689        -0.1209043054        -0.6233759823
H         -0.6193946334        -0.4108323986        -0.7278052092
H         -0.3844510128         0.5358308069         0.7993719797
           6
ANG Step:         50 Time:      413.4079271770
C         -2.7274332366         0.3519736118         0.1994457771
N         -0.9698429174         0.1233533263         0.0700713611
H         -3.0301325489         0.9361934026         1.0843178992
H         -3.2929624526        -0.1193994659        -0.6214714865
H         -0.6153033533        -0.4106474949        -0.7269304053
H         -0.3807209163         0.5346247884         0.7979328898
           6
ANG Step:         51 Time:      421.6760857205
C         -2.7339876718         0.3528260567         0.1999285092
N         -0.9643196276         0.1226351709         0.0696637935
H         -3.0339423175         0.9355233248         1.0827825739
H         -3.2962154519        -0.1178085915        -0.6194163806
H         -0.6112372203        -0.4104507777        -0.7260391652
H         -0.3770196991         0.5334140835         0.7964820559
           6
ANG Step:         52 Time:      429.9442442640
C         -2.7404978343         0.3536727348         0.2004079486
N         -0.9588427499         0.1219230606         0.0692596073
H         -3.0376964367         0.9347660180         1.0811174125
H         -3.2993745968        -0.1161500060        -0.6172422295
H         -0.6071891498        -0.4102596500        -0.7251580362
H         -0.3733323895         0.5322131807         0.7950443600
           6
ANG Step:         53 Time:      438.2124028076
C         -2.7469589274         0.3545130232         0.2008837419
N         -0.9534157934         0.1212174563         0.0688590644
H         -3.0414047747         0.9339449173         1.0793582228
H         -3.3024604429        -0.1144432000        -0.6149825970
H         -0.6031520670        -0.4100915291        -0.7243135803
H         -0.3696440296         0.5310365722         0.7936446936
           6
ANG Step:         54 Time:      446.4805613511
C         -2.7533662010         0.3553463049         0.2013555391
N         -0.9480420876         0.1205187962         0.0684624140
H         -3.0450776532         0.9330845949         1.0775425569
H         -3.3054945211        -0.1127086176        -0.6126726881
H         -0.5991190844        -0.4099635320        -0.7235319041
H         -0.3659399924         0.5298985072         0.7923075210
           6
ANG Step:         55 Time:      454.7487198947
C         -2.7597149783         0.3561719730         0.2018229961
N         -0.9427247526         0.1198274920         0.0680698907
H         -3.0487256987         0.9322104629         1.0757092621
H         -3.3084990563        -0.1109674174        -0.6103489297
H         -0.5950836879        -0.4098921529        -0.7228381751
H         -0.3622063093         0.5288127379         0.7910564338
           6
ANG Step:         56 Time:      463.0168784382
C         -2.7660006876         0.3569894347         0.2022857759
N         -0.9374666701         0.1191439249         0.0676817120
H         -3.0523596814         0.9313484400         1.0738979748
H         -3.3114966535        -0.1092411997        -0.6080484986
H         -0.5910399197        -0.4098929399        -0.7222561344
H         -0.3584299966         0.5277922628         0.7899137037
           6
ANG Step:         57 Time:      471.2850369817
C         -2.7722188968         0.3577981154         0.2027435524
N         -0.9322704545         0.1184684419         0.0672980759
H         -3.0559903414         0.9305245834         1.0721485592
H         -3.3145099585        -0.1075517046        -0.6058087991
H         -0.5869825572        -0.4099801760        -0.7218076154
H         -0.3545993742         0.5268490730         0.7888998400
           6
ANG Step:         58 Time:      479.5531955253
C         -2.7783653516         0.3585974637         0.2031960121
N         -0.9271384264         0.1178013519         0.0669191590
H         -3.0596282063         0.9297646889         1.0705004997
H         -3.3175612935        -0.1059204835        -0.6036668943
H         -0.5829072787        -0.4101665759        -0.7215120883
H         -0.3507043628         0.5259939129         0.7880331733
           6
ANG Step:         59 Time:      487.8213540688
C         -2.7844360159         0.3593869574         0.2036428578
N         -0.9220725885         0.1171429231         0.0665451144
H         -3.0632834018         0.9290938647         1.0689922511
H         -3.3206722746        -0.1043685484        -0.6016588991
H         -0.5788108109        -0.4104630125        -0.7213862451
H         -0.3467367562         0.5252360579         0.7873294680
           6
ANG Step:         60 Time:      496.0895126123
C         -2.7904271131         0.3601661074         0.2040838111
N         -0.9170746094         0.1164933808         0.0661760707
H         -3.0669654544         0.9285360974         1.0676605773
H         -3.3238634150        -0.1029160103        -0.5998193593
H         -0.5746910425        -0.4108782692        -0.7214436238
H         -0.3426904436         0.5245831126         0.7868015749
           6
ANG Step:         61 Time:      504.3576711559
C         -2.7963351698         0.3609344654         0.2045186161
N         -0.9121458014         0.1158529034         0.0658121297
H         -3.0706831230         0.9281137797         1.0665398268
H         -3.3271537436        -0.1015816907        -0.5981805722
H         -0.5705471504        -0.4114188466        -0.7216943286
H         -0.3385616142         0.5240408696         0.7864591834
           6
ANG Step:         62 Time:      512.6258296994
C         -2.8021570567         0.3616916279         0.2049470416
N         -0.9072871146         0.1152216225         0.0654533662
H         -3.0744441921         0.9278472966         1.0656613054
H         -3.3305604084        -0.1003827752        -0.5967719978
H         -0.5663796623        -0.4120888077        -0.7221447819
H         -0.3343488935         0.5236131718         0.7863085840
           6
ANG Step:         63 Time:      520.8939882430
C         -2.8078900263         0.3624372411         0.2053688845
N         -0.9024991348         0.1145996223         0.0650998273
H         -3.0782553136         0.9277545946         1.0650526148
H         -3.3340983197        -0.0993344525        -0.5956196359
H         -0.5621904876        -0.4128896847        -0.7227975871
H         -0.3300534117         0.5233018394         0.7863525459
           6
ANG Step:         64 Time:      529.1621467865
C         -2.8135317466         0.3631710058         0.2057839718
N         -0.8977820869         0.1139869400         0.0647515327
H         -3.0821218581         0.9278507955         1.0647370601
H         -3.3377798265        -0.0984495927        -0.5947454707
H         -0.5579829185        -0.4138204464        -0.7236514755
H         -0.3256788211         0.5231066374         0.7865902648
           6
ANG Step:         65 Time:      537.4303053300
C         -2.8190803289         0.3638926810         0.2061921631
N         -0.8931358459         0.1133835671         0.0644084752
H         -3.0860477915         0.9281478623         1.0647331381
H         -3.3416144391        -0.0977384653        -0.5941669870