           6
AU Step:          0 Time:        0.0000000000
C          0.0000000000         0.0000000000         0.0000000000
N          0.0000000000         0.0000000000         0.0000000000
H          0.0000000000         0.0000000000         0.0000000000
H          0.0000000000         0.0000000000         0.0000000000
H          0.0000000000         0.0000000000         0.0000000000
H          0.0000000000         0.0000000000         0.0000000000
           6
AU Step:          1 Time:        8.2681585435
C         -0.0000986087         0.0000128262         0.0000072666
N          0.0000811600        -0.0000105652        -0.0000059909
H          0.0000052992        -0.0000182260        -0.0000280719
H          0.0000138294         0.0000157808         0.0000266358
H          0.0000149375         0.0000018374         0.0000050172
H          0.0000131367        -0.0000054131        -0.0000069183
           6
AU Step:          2 Time:       16.5363170871
C         -0.0001966399         0.0000255773         0.0000144906
N          0.0001618615        -0.0000210707        -0.0000119479
H          0.0000101611        -0.0000359372        -0.0000553868
H          0.0000270002         0.0000311892         0.0000525955
H          0.0000301123         0.0000034093         0.0000096459
H          0.0000266217        -0.0000106383        -0.0000134935
           6
AU Step:          3 Time:       24.8044756306
C         -0.0002935351         0.0000381807         0.0000216310
N          0.0002416618        -0.0000314586        -0.0000178382
H          0.0000141542        -0.0000526253        -0.0000811979
H          0.0000388624         0.0000458576         0.0000772118
H          0.0000457598         0.0000044546         0.0000135039
H          0.0000407991        -0.0000154912        -0.0000193889
           6
AU Step:          4 Time:       33.0726341742
C         -0.0003887597         0.0000505667         0.0000286484
N          0.0003201378        -0.0000416740        -0.0000236305
H          0.0000168581        -0.0000677931        -0.0001047738
H          0.0000487813         0.0000594258         0.0000998311
H          0.0000621087         0.0000047199         0.0000162213
H          0.0000560033        -0.0000197937        -0.0000242780
           6
AU Step:          5 Time:       41.3407927177
C         -0.0004818056         0.0000626692         0.0000355055
N          0.0003968882        -0.0000516644        -0.0000292952
H          0.0000178682        -0.0000809580        -0.0001254046
H          0.0000561446         0.0000715435         0.0001198185
H          0.0000793777         0.0000039642         0.0000174461
H          0.0000725531        -0.0000233762        -0.0000278502
           6
AU Step:          6 Time:       49.6089512612
C         -0.0005721996         0.0000744268         0.0000421673
N          0.0004715407        -0.0000613812        -0.0000348047
H          0.0000168021        -0.0000916585        -0.0001424110
H          0.0000603707         0.0000818745         0.0001365653
H          0.0000977704         0.0000019629         0.0000168502
H          0.0000907457        -0.0000260810        -0.0000298167
           6
AU Step:          7 Time:       57.8771098048
C         -0.0006595096         0.0000857831         0.0000486022
N          0.0005437566        -0.0000707803        -0.0000401338
H          0.0000133053        -0.0000994606        -0.0001551526
H          0.0000609169         0.0000901007         0.0001494971
H          0.0001174725        -0.0000014872         0.0000141361
H          0.0001108516        -0.0000277648        -0.0000299155
           6
AU Step:          8 Time:       66.1452683483
C         -0.0007433505         0.0000966886         0.0000547816
N          0.0006132354        -0.0000798229        -0.0000452602
H          0.0000070569        -0.0001039650        -0.0001630385
H          0.0000572885         0.0000959268         0.0001580826
H          0.0001386474        -0.0000065626         0.0000090433
H          0.0001331083        -0.0000283016        -0.0000279192
           6
AU Step:          9 Time:       74.4134268919
C         -0.0008233882         0.0001070993         0.0000606811
N          0.0006797179        -0.0000884752        -0.0000501646
H         -0.0000022232        -0.0001048122        -0.0001655387
H          0.0000490497         0.0000990884         0.0001618447
H          0.0001614325        -0.0000134127         0.0000013539
H          0.0001577146        -0.0000275872        -0.0000236363
           6
AU Step:         10 Time:       82.6815854354
C         -0.0008993423         0.0001169787         0.0000662798
N          0.0007429882        -0.0000967085        -0.0000548312
H         -0.0000147687        -0.0001016923        -0.0001621951
H          0.0000358324         0.0000993557         0.0001603702
H          0.0001859344        -0.0000221546        -0.0000091004
H          0.0001848251        -0.0000255422        -0.0000169176
           6
AU Step:         11 Time:       90.9497439789
C         -0.0009709883         0.0001262976         0.0000715614
N          0.0008028751        -0.0001045006        -0.0000592474
H         -0.0000307612        -0.0000943551        -0.0001526340
H          0.0000173445         0.0000965374         0.0001533204
H          0.0002122264        -0.0000328649        -0.0000224306
H          0.0002145446        -0.0000221145        -0.0000076658
           6
AU Step:         12 Time:       99.2179025225
C         -0.0010381584         0.0001350344         0.0000765133
N          0.0008592518        -0.0001118349        -0.0000634036
H         -0.0000503235        -0.0000826159        -0.0001365794
H         -0.0000066189         0.0000904910         0.0001404435
H          0.0002403463        -0.0000455786        -0.0000386868
H          0.0002469243        -0.0000172820         0.0000041620
           6
AU Step:         13 Time:      107.4860610660
C         -0.0011007407         0.0001431745         0.0000811273
N          0.0009120351        -0.0001187005        -0.0000672938
H         -0.0000735153        -0.0000663649        -0.0001138651
H         -0.0000361668         0.0000811281         0.0001215864
H          0.0002702926        -0.0000602853        -0.0000578534
H          0.0002819581        -0.0000110540         0.0000185503
           6
AU Step:         14 Time:      115.7542196095
C         -0.0011586777         0.0001507104         0.0000853991
N          0.0009611834        -0.0001250921        -0.0000709149
H         -0.0001003293        -0.0000455743        -0.0000844465
H         -0.0000713064         0.0000684206         0.0000967046
H          0.0003020241        -0.0000769278        -0.0000798458
H          0.0003195799        -0.0000034739         0.0000354224
           6
AU Step:         15 Time:      124.0223781531
C         -0.0012119637         0.0001576415         0.0000893282
N          0.0010066942        -0.0001310093        -0.0000742666
H         -0.0001306895        -0.0000203048        -0.0000484102
H         -0.0001119369         0.0000524059         0.0000658716
H          0.0003354586        -0.0000953998        -0.0001045080
H          0.0003596627         0.0000053795         0.0000546383
           6
AU Step:         16 Time:      132.2905366966
C         -0.0012606418         0.0001639733         0.0000929178
N          0.0010486009        -0.0001364565        -0.0000773516
H         -0.0001644496         0.0000092898        -0.0000059816
H         -0.0001578473         0.0000331910         0.0000292870
H          0.0003704739        -0.0001155460        -0.0001316124
H          0.0004020186         0.0000153921         0.0000759946
           6
AU Step:         17 Time:      140.5586952402
C         -0.0013047992         0.0001697173         0.0000961742
N          0.0010869692        -0.0001414423        -0.0000801746
H         -0.0002013951         0.0000429607         0.0000424700
H         -0.0002087157         0.0000109540        -0.0000127195
H          0.0004069093        -0.0001371630        -0.0001608629
H          0.0004464009         0.0000264135         0.0000992267
           6
AU Step:         18 Time:      148.8268537837
C         -0.0013445633         0.0001748901         0.0000991068
N          0.0011218930        -0.0001459790        -0.0000827429
H         -0.0002412455         0.0000803712         0.0000964271
H         -0.0002641136        -0.0000140607        -0.0000596823
H          0.0004445692        -0.0001599931        -0.0001919022
H          0.0004925077         0.0000382520         0.0001240155
           6
AU Step:         19 Time:      157.0950123272
C         -0.0013278863         0.0001727269         0.0000978816
N          0.0011208460        -0.0001458392        -0.0000826639
H         -0.0003812688         0.0001766216         0.0002301638
H         -0.0004417812        -0.0000690322        -0.0001699980
H          0.0005051544        -0.0001938977        -0.0002375837
H          0.0005654312         0.0000547134         0.0001597787
           6
AU Step:         20 Time:      165.3631708708
C         -0.0013117471         0.0001706403         0.0000966998
N          0.0011259606        -0.0001465055        -0.0000830459
H         -0.0009503092         0.0005066215         0.0006776072
H         -0.0011339126        -0.0002348541        -0.0005247046
H          0.0009015410        -0.0003654357        -0.0004554678
H          0.0010184977         0.0001157125         0.0003155295
           6
AU Step:         21 Time:      173.6313294143
C         -0.0012888726         0.0001676714         0.0000950184
N          0.0011196445        -0.0001456792        -0.0000825779
H         -0.0010891107         0.0006020854         0.0008103869
H         -0.0013100861        -0.0002894016        -0.0006342672
H          0.0009607984        -0.0003978276        -0.0004987992
H          0.0010894190         0.0001310819         0.0003491755
           6
AU Step:         22 Time:      181.8994879579
C         -0.0013156773         0.0001711585         0.0000969953
N          0.0011435998        -0.0001487865        -0.0000843353
H         -0.0011258362         0.0006355048         0.0008585576
H         -0.0013606713        -0.0003114680        -0.0006760237
H          0.0009945006        -0.0004160681        -0.0005229848
H          0.0011295726         0.0001395937         0.0003678092
           6
AU Step:         23 Time:      190.1676465014
C         -0.0013404281         0.0001743783         0.0000988206
N          0.0011655675        -0.0001516351        -0.0000859461
H         -0.0011578129         0.0006626541         0.0008974391
H         -0.0014037878        -0.0003288545        -0.0007093909
H          0.0010245287        -0.0004302399        -0.0005412182
H          0.0011643284         0.0001452169         0.0003811599
           6
AU Step:         24 Time:      198.4358050449
C         -0.0013632637         0.0001773488         0.0001005045
N          0.0011856640        -0.0001542402        -0.0000874190
H         -0.0011849555         0.0006833053         0.0009266812
H         -0.0014392450        -0.0003413688        -0.0007340386
H          0.0010507935        -0.0004402006        -0.0005532863
H          0.0011935366         0.0001478418         0.0003890350
           6
AU Step:         25 Time:      206.7039635885
C         -0.0013843116         0.0001800865         0.0001020563
N          0.0012039998        -0.0001566164        -0.0000887626
H         -0.0012072497         0.0006973393         0.0009460967
H         -0.0014669714        -0.0003489024        -0.0007497854
H          0.0010732575        -0.0004458789        -0.0005590821
H          0.0012171304         0.0001474128         0.0003913381
           6
AU Step:         26 Time:      214.9721221320
C         -0.0014036872         0.0001826065         0.0001034845
N          0.0012206785        -0.0001587772        -0.0000899845
H         -0.0012247465         0.0007047404         0.0009556540
H         -0.0014870067        -0.0003514276        -0.0007565921
H          0.0010919333        -0.0004472746        -0.0005586035
H          0.0012351237         0.0001439274         0.0003880675
           6
AU Step:         27 Time:      223.2402806756
C         -0.0014214942         0.0001849222         0.0001047968
N          0.0012357966        -0.0001607353        -0.0000910919
H         -0.0012375557         0.0007055897         0.0009554649
H         -0.0014994922        -0.0003489919        -0.0007545525
H          0.0011068798        -0.0004444525        -0.0005519474
H          0.0012476046         0.0001374336         0.0003793104
           6
AU Step:         28 Time:      231.5084392191
C         -0.0014378235         0.0001870454         0.0001059999
N          0.0012494414        -0.0001625023        -0.0000920915
H         -0.0012458397         0.0007000556         0.0009457745
H         -0.0015046609        -0.0003417127        -0.0007438819
H          0.0011182004        -0.0004375426        -0.0005393063
H          0.0012547347         0.0001280282         0.0003652420
           6
AU Step:         29 Time:      239.7765977626
C         -0.0014527538         0.0001889865         0.0001070993
N          0.0012616911        -0.0001640883        -0.0000929891
H         -0.0012498055         0.0006883850         0.0009269469
H         -0.0015028257        -0.0003297700        -0.0007249047
H          0.0011260389        -0.0004267351        -0.0005209616
H          0.0012567415         0.0001158536         0.0003461182
           6
AU Step:         30 Time:      248.0447563062
C         -0.0014663538         0.0001907545         0.0001081002
N          0.0012726164        -0.0001655025        -0.0000937900
H         -0.0012496975         0.0006708924         0.0008994474
H         -0.0014943667        -0.0003133970        -0.0006980399
H          0.0011305727        -0.0004122717        -0.0004972722
H          0.0012539086         0.0001010919         0.0003222651
           6
AU Step:         31 Time:      256.3129148497
C         -0.0014786824         0.0001923569         0.0001090068
N          0.0012822798        -0.0001667533        -0.0000944990
H         -0.0012457904         0.0006479509         0.0008638293
H         -0.0014797210        -0.0002928741        -0.0006637885
H          0.0011320097        -0.0003944411        -0.0004686675
H          0.0012465701         0.0000839618         0.0002940727
           6
AU Step:         32 Time:      264.5810733933
C         -0.0014897891         0.0001938003         0.0001098230
N          0.0012907363        -0.0001678476        -0.0000951201
H         -0.0012383826         0.0006199824         0.0008207205
H         -0.0014593715        -0.0002685212        -0.0006227206
H          0.0011305830        -0.0003735731        -0.0004356381
H          0.0012351038         0.0000647139         0.0002619874
           6
AU Step:         33 Time:      272.8492319368
C         -0.0014997158         0.0001950898         0.0001105518
N          0.0012980339        -0.0001687916        -0.0000956570
H         -0.0012277903         0.0005874488         0.0007708091
H         -0.0014338367        -0.0002406906        -0.0005754636
H          0.0011265455        -0.0003500335        -0.0003987265
H          0.0012199225         0.0000436257         0.0002265044
           6
AU Step:         34 Time:      281.1173904803
C         -0.0015084968         0.0001962299         0.0001111959
N          0.0013042133        -0.0001695908        -0.0000961128
H         -0.0012143419         0.0005508443         0.0007148330
H         -0.0014036624        -0.0002097621        -0.0005226915
H          0.0011201687        -0.0003242158        -0.0003585205
H          0.0012014705         0.0000209993         0.0001881581
           6
AU Step:         35 Time:      289.3855490239
C         -0.0015161593         0.0001972244         0.0001117572
N          0.0013093086        -0.0001702498        -0.0000964896
H         -0.0011983741         0.0005106879         0.0006535695
H         -0.0013694144        -0.0001761382        -0.0004651141
H          0.0011117378        -0.0002965365        -0.0003156448
H          0.0011802159        -0.0000028443         0.0001475156
           6
AU Step:         36 Time:      297.6537075674
C         -0.0015227244         0.0001980762         0.0001122370
N          0.0013133480        -0.0001707717        -0.0000967900
H         -0.0011802285         0.0004675139         0.0005878280
H         -0.0013316719        -0.0001402371        -0.0004034711
H          0.0011015491        -0.0002674361        -0.0002707438
H          0.0011566453        -0.0000275731         0.0001051668
           6
AU Step:         37 Time:      305.9218661109
C         -0.0015282094         0.0001987875         0.0001126367
N          0.0013163560        -0.0001711601        -0.0000970154
H         -0.0011602464         0.0004218762         0.0005184326
H         -0.0012910205        -0.0001024896        -0.0003385191
H          0.0010898985        -0.0002373612        -0.0002244948
H          0.0011312523        -0.0000528390         0.0000617280
           6
AU Step:         38 Time:      314.1900246545
C         -0.0015326268         0.0001993596         0.0001129574
N          0.0013183531        -0.0001714182        -0.0000971670
H         -0.0011387675         0.0003743390         0.0004462234
H         -0.0012480490        -0.0000633369        -0.0002710322
H          0.0010770817        -0.0002067673        -0.0001775896
H          0.0011045347        -0.0000782854         0.0000178287
           6
AU Step:         39 Time:      322.4581831980
C         -0.0015359841         0.0001997938         0.0001131997
N          0.0013193544        -0.0001715473        -0.0000972463
H         -0.0011161280         0.0003254684         0.0003720562
H         -0.0012033465        -0.0000232260        -0.0002017976
H          0.0010634009        -0.0001761175        -0.0001307122
H          0.0010769959        -0.0001035585        -0.0000259045
           6
AU Step:         40 Time:      330.7263417416
C         -0.0015382855         0.0002000905         0.0001133640
N          0.0013193718        -0.0001715490        -0.0000972539
H         -0.0010926576         0.0002758364         0.0002967868
H         -0.0011574968         0.0000173893        -0.0001316041
H          0.0010491543        -0.0001458687        -0.0000845517
H          0.0010491350        -0.0001283066        -0.0000688423
           6
AU Step:         41 Time:      338.9945002851
C         -0.0015395317         0.0002002499         0.0001134502
N          0.0013184145        -0.0001714243        -0.0000971907
H         -0.0010686791         0.0002260121         0.0002212757
H         -0.0011110773         0.0000580564        -0.0000612452
H          0.0010346327        -0.0001164776        -0.0000397890
H          0.0010214426        -0.0001521762        -0.0001103618
           6
AU Step:         42 Time:      347.2626588286
C         -0.0015397213         0.0002002719         0.0001134583
N          0.0013164905        -0.0001711743        -0.0000970569
H         -0.0010445075         0.0001765597         0.0001463804
H         -0.0010646560         0.0000983257         0.0000084868
H          0.0010201155        -0.0000883917         0.0000029126
H          0.0009943934        -0.0001748192        -0.0001498567
           6
AU Step:         43 Time:      355.5308173722
C         -0.0015388511         0.0002001559         0.0001133880
N          0.0013136071        -0.0001707998        -0.0000968532
H         -0.0010204474         0.0001280405         0.0000729492
H         -0.0010187892         0.0001377479         0.0000768060
H          0.0010058693        -0.0000620395         0.0000429111
H          0.0009684420        -0.0001959014        -0.0001867399
           6
AU Step:         44 Time:      363.7989759157
C         -0.0015369156         0.0001999015         0.0001132391
N          0.0013097708        -0.0001703015        -0.0000965797
H         -0.0009967929         0.0000810093         0.0000018204
H         -0.0009740200         0.0001758770         0.0001429357
H          0.0009921462        -0.0000378294         0.0000795942
H          0.0009440193        -0.0002151051        -0.0002204509
           6
AU Step:         45 Time:      372.0671344593
C         -0.0015339083         0.0001995076         0.0001130110
N          0.0013049885        -0.0001696803        -0.0000962370
H         -0.0009738260         0.0000360101        -0.0000661826
H         -0.0009308751         0.0002122740         0.0002061117
H          0.0009791802        -0.0000161430         0.0001123892
H          0.0009215264        -0.0002321327        -0.0002504658
           6
AU Step:         46 Time:      380.3352930028
C         -0.0015298222         0.0001989735         0.0001127033
N          0.0012992683        -0.0001689371        -0.0000958255
H         -0.0009518156        -0.0000064270        -0.0001302561
H         -0.0008898621         0.0002465095         0.0002655876
H          0.0009671836         0.0000026693         0.0001407707
H          0.0009013289        -0.0002467106        -0.0002763037
           6
AU Step:         47 Time:      388.6034515463
C         -0.0015246499         0.0001982981         0.0001123154
N          0.0012926204        -0.0001680731        -0.0000953458
H         -0.0009310158        -0.0000457893        -0.0001896219
H         -0.0008514663         0.0002781669         0.0003206392
H          0.0009563441         0.0000182948         0.0001642701
H          0.0008837509        -0.0002585944        -0.0002975356
           6
AU Step:         48 Time:      396.8716100899
C         -0.0015183846         0.0001974807         0.0001118469
N          0.0012850578        -0.0001670897        -0.0000947987
H         -0.0009116641        -0.0000815861        -0.0002435338
H         -0.0008161475         0.0003068454         0.0003705720
H          0.0009468214         0.0000304639         0.0001824832
H          0.0008690691        -0.0002675739        -0.0003137922
           6
AU Step:         49 Time:      405.1397686334
C         -0.0015110208         0.0001965206         0.0001112973
N          0.0012765969        -0.0001659891        -0.0000941852
H         -0.0008939796        -0.0001133541        -0.0002912856
H         -0.0007843350         0.0003321645         0.0004147276
H          0.0009387443         0.0000389571         0.0001950813
H          0.0008575073        -0.0002734773        -0.0003247726
           6
AU Step:         50 Time:      413.4079271770
C         -0.0015025552         0.0001954176         0.0001106664
N          0.0012672589        -0.0001647737        -0.0000935068
H         -0.0008781603        -0.0001406621        -0.0003322209
H         -0.0007564226         0.0003537699         0.0004524927
H          0.0009322074         0.0000436106         0.0002018188
H          0.0008492307        -0.0002761767        -0.0003302528
           6
AU Step:         51 Time:      421.6760857205
C         -0.0014929873         0.0001941712         0.0001099544
N          0.0012570697        -0.0001634469        -0.0000927651
H         -0.0008643809        -0.0001631177        -0.0003657431
H         -0.0007327627         0.0003713396         0.0004833082
H          0.0009272695         0.0000443219         0.0002025416
H          0.0008443411        -0.0002755921        -0.0003300935
           6
AU Step:         52 Time:      429.9442442640
C         -0.0014823204         0.0001927820         0.0001091614
N          0.0012460610        -0.0001620126        -0.0000919623
H         -0.0008527897        -0.0001803762        -0.0003913257
H         -0.0007136609         0.0003845879         0.0005066809
H          0.0009239497         0.0000410540         0.0001971952
H          0.0008428718        -0.0002716956        -0.0003242462
           6
AU Step:         53 Time:      438.2124028076
C         -0.0014705626         0.0001912511         0.0001082881
N          0.0012342708        -0.0001604756        -0.0000911011
H         -0.0008435057        -0.0001921485        -0.0004085249
H         -0.0006993686         0.0003932727         0.0005221950
H          0.0009222255         0.0000338396         0.0001858300
H          0.0008447834        -0.0002645147        -0.0003127587
           6
AU Step:         54 Time:      446.4805613511
C         -0.0014577274         0.0001895804         0.0001073355
N          0.0012217436        -0.0001588414        -0.0000901847
H         -0.0008366156        -0.0001982088        -0.0004169935
H         -0.0006900766         0.0003972031         0.0005295231
H          0.0009220328         0.0000227842         0.0001686054
H          0.0008499628        -0.0002541338        -0.0002957794
           6
AU Step:         55 Time:      454.7487198947
C         -0.0014438354         0.0001877725         0.0001063050
N          0.0012085305        -0.0001571166        -0.0000892165
H         -0.0008321707        -0.0001984032        -0.0004164931
H         -0.0006859076         0.0003962472         0.0005284400
H          0.0009232653         0.0000080671         0.0001457915
H          0.0008582222        -0.0002406960        -0.0002735590
           6
AU Step:         56 Time:      463.0168784382
C         -0.0014289144         0.0001858312         0.0001051987
N          0.0011946893        -0.0001553086        -0.0000882009
H         -0.0008301839        -0.0001926578        -0.0004069076
H         -0.0006869098         0.0003903385         0.0005188340
H          0.0009257756        -0.0000100590         0.0001177696
H          0.0008693002        -0.0002244024        -0.0002464498
           6
AU Step:         57 Time:      471.2850369817
C         -0.0014130008         0.0001837613         0.0001040194
N          0.0011802841        -0.0001534257        -0.0000871425
H         -0.0008306276        -0.0001809868        -0.0003882544
H         -0.0006930509         0.0003794826         0.0005007180
H          0.0009293765        -0.0000312704         0.0000850276
H          0.0008828648        -0.0002055106        -0.0002149020
           6
AU Step:         58 Time:      479.5531955253
C         -0.0013961397         0.0001815686         0.0001027702
N          0.0011653849        -0.0001514767        -0.0000860464
H         -0.0008334315        -0.0001634987        -0.0003606945
H         -0.0007042130         0.0003637626         0.0004742395
H          0.0009338453        -0.0000551773         0.0000481531
H          0.0008985190        -0.0001843311        -0.0001794579
           6
AU Step:         59 Time:      487.8213540688
C         -0.0013783859         0.0001792604         0.0001014553
N          0.0011500661        -0.0001494714        -0.0000849181
H         -0.0008384811        -0.0001404002        -0.0003245387
H         -0.0007201896         0.0003433432         0.0004396860
H          0.0009389295        -0.0000813304         0.0000078239
H          0.0009158093        -0.0001612225        -0.0001407438
           6
AU Step:         60 Time:      496.0895126123
C         -0.0013598035         0.0001768451         0.0001000793
N          0.0011344067        -0.0001474200        -0.0000837635
H         -0.0008456204        -0.0001120015        -0.0002802565
H         -0.0007406850         0.0003184746         0.0003974939
H          0.0009443490        -0.0001092302        -0.0000352070
H          0.0009342334        -0.0001365829        -0.0000994538
           6
AU Step:         61 Time:      504.3576711559
C         -0.0013404666         0.0001743324         0.0000986477
N          0.0011184887        -0.0001453331        -0.0000825887
H         -0.0008546502        -0.0000787143        -0.0002284714
H         -0.0007653145         0.0002894913         0.0003482443
H          0.0009498023        -0.0001383371        -0.0000801265
H          0.0009532501        -0.0001108422        -0.0000563377
           6
AU Step:         62 Time:      512.6258296994
C         -0.0013204581         0.0001717332         0.0000971664
N          0.0011023953        -0.0001432216        -0.0000814000
H         -0.0008653297        -0.0000410467        -0.0001699546
H         -0.0007936076         0.0002568084         0.0002926570
H          0.0009549771        -0.0001680834        -0.0001260774
H          0.0009722946        -0.0000844544        -0.0000121862
           6
AU Step:         63 Time:      520.8939882430
C         -0.0012998692         0.0001690594         0.0000956421
N          0.0010862092        -0.0001410962        -0.0000802037
H         -0.0008773832         0.0000003998        -0.0001056203
H         -0.0008250158         0.0002209189         0.0002315861
H          0.0009595574        -0.0001978871        -0.0001721809
H          0.0009907927        -0.0000578854         0.0000321897
           6
AU Step:         64 Time:      529.1621467865
C         -0.0012787979         0.0001663238         0.0000940821
N          0.0010700116        -0.0001389675        -0.0000790059
H         -0.0008905036         0.0000449416        -0.0000365089
H         -0.0008589220         0.0001823852         0.0001660048
H          0.0009632313        -0.0002271650        -0.0002175563
H          0.0010081734        -0.0000316029         0.0000759777
           6
AU Step:         65 Time:      537.4303053300
C         -0.0012573480         0.0001635401         0.0000924938
N          0.0010538806        -0.0001368458        -0.0000778127
H         -0.0009043593         0.0000918255         0.0000362327
H         -0.0008946524         0.0001418279         0.0000969870
H          0.0009656983        -0.0002553472        -0.0002613418