 Entering Gaussian System, Link 0=g09
 Input=freq.gjf
 Output=freq.log
 Initial command:
 /opt//g09/l1.exe /tmp/Gau-11311.inp -scrdir=/tmp/
 Entering Link 1 = /opt//g09/l1.exe PID=     11313.
  
 Copyright (c) 1988,1990,1992,1993,1995,1998,2003,2009, Gaussian, Inc.
                  All Rights Reserved.
  
 This is part of the Gaussian(R) 09 program.  It is based on
 the Gaussian(R) 03 system (copyright 2003, Gaussian, Inc.),
 the Gaussian(R) 98 system (copyright 1998, Gaussian, Inc.),
 the Gaussian(R) 94 system (copyright 1995, Gaussian, Inc.),
 the Gaussian 92(TM) system (copyright 1992, Gaussian, Inc.),
 the Gaussian 90(TM) system (copyright 1990, Gaussian, Inc.),
 the Gaussian 88(TM) system (copyright 1988, Gaussian, Inc.),
 the Gaussian 86(TM) system (copyright 1986, Carnegie Mellon
 University), and the Gaussian 82(TM) system (copyright 1983,
 Carnegie Mellon University). Gaussian is a federally registered
 trademark of Gaussian, Inc.
  
 This software contains proprietary and confidential information,
 including trade secrets, belonging to Gaussian, Inc.
  
 This software is provided under written license and may be
 used, copied, transmitted, or stored only in accord with that
 written license.
  
 The following legend is applicable only to US Government
 contracts under FAR:
  
                    RESTRICTED RIGHTS LEGEND
  
 Use, reproduction and disclosure by the US Government is
 subject to restrictions as set forth in subparagraphs (a)
 and (c) of the Commercial Computer Software - Restricted
 Rights clause in FAR 52.227-19.
  
 Gaussian, Inc.
 340 Quinnipiac St., Bldg. 40, Wallingford CT 06492
  
  
 ---------------------------------------------------------------
 Warning -- This program may not be used in any manner that
 competes with the business of Gaussian, Inc. or will provide
 assistance to any competitor of Gaussian, Inc.  The licensee
 of this program is prohibited from giving any competitor of
 Gaussian, Inc. access to this program.  By using this program,
 the user acknowledges that Gaussian, Inc. is engaged in the
 business of creating and licensing software in the field of
 computational chemistry and represents and warrants to the
 licensee that it is not a competitor of Gaussian, Inc. and that
 it will not use this program in any manner prohibited above.
 ---------------------------------------------------------------
  

 Cite this work as:
 Gaussian 09, Revision A.01,
 M. J. Frisch, G. W. Trucks, H. B. Schlegel, G. E. Scuseria, 
 M. A. Robb, J. R. Cheeseman, G. Scalmani, V. Barone, B. Mennucci, 
 G. A. Petersson, H. Nakatsuji, M. Caricato, X. Li, H. P. Hratchian, 
 A. F. Izmaylov, J. Bloino, G. Zheng, J. L. Sonnenberg, M. Hada, 
 M. Ehara, K. Toyota, R. Fukuda, J. Hasegawa, M. Ishida, T. Nakajima, 
 Y. Honda, O. Kitao, H. Nakai, T. Vreven, J. A. Montgomery, Jr., 
 J. E. Peralta, F. Ogliaro, M. Bearpark, J. J. Heyd, E. Brothers, 
 K. N. Kudin, V. N. Staroverov, R. Kobayashi, J. Normand, 
 K. Raghavachari, A. Rendell, J. C. Burant, S. S. Iyengar, J. Tomasi, 
 M. Cossi, N. Rega, J. M. Millam, M. Klene, J. E. Knox, J. B. Cross, 
 V. Bakken, C. Adamo, J. Jaramillo, R. Gomperts, R. E. Stratmann, 
 O. Yazyev, A. J. Austin, R. Cammi, C. Pomelli, J. W. Ochterski, 
 R. L. Martin, K. Morokuma, V. G. Zakrzewski, G. A. Voth, 
 P. Salvador, J. J. Dannenberg, S. Dapprich, A. D. Daniels, 
 O. Farkas, J. B. Foresman, J. V. Ortiz, J. Cioslowski, 
 and D. J. Fox, Gaussian, Inc., Wallingford CT, 2009.
 
 ******************************************
 Gaussian 09:  EM64L-G09RevA.01  8-May-2009
                11-Dec-2013 
 ******************************************
 %chk=freq.chk
 %mem=1GB
 ---------------------------------------------
 # opt freq=(hpmode) b3lyp/6-31g(d,p) pop=full
 ---------------------------------------------
 1/14=-1,18=20,19=15,26=3,38=1/1,3;
 2/9=110,12=2,17=6,18=5,40=1/2;
 3/5=1,6=6,7=101,11=2,16=1,25=1,30=1,71=1,74=-5/1,2,3;
 4//1;
 5/5=2,38=5/2;
 6/7=3,28=1/1;
 7//1,2,3,16;
 1/14=-1,18=20,19=15/3(2);
 2/9=110/2;
 99//99;
 2/9=110/2;
 3/5=1,6=6,7=101,11=2,16=1,25=1,30=1,71=1,74=-5/1,2,3;
 4/5=5,16=3/1;
 5/5=2,38=5/2;
 7//1,2,3,16;
 1/14=-1,18=20,19=15/3(-5);
 2/9=110/2;
 6/7=3,19=2,28=1/1;
 99/9=1/99;
 -------------------
 Title Card Required
 -------------------
 Symbolic Z-matrix:
 Charge =  1 Multiplicity = 1
 C                     0.6766    0.        0.00011 
 H                     1.2162    0.94442  -0.00009 
 H                     1.2162   -0.94442  -0.00009 
 N                    -0.60198   0.       -0.00021 
 H                    -1.13904   0.86802   0.00049 
 H                    -1.13904  -0.86802   0.00049 
 

 GradGradGradGradGradGradGradGradGradGradGradGradGradGradGradGradGradGrad
 Berny optimization.
 Initialization pass.
                           ----------------------------
                           !    Initial Parameters    !
                           ! (Angstroms and Degrees)  !
 --------------------------                            --------------------------
 ! Name  Definition              Value          Derivative Info.                !
 --------------------------------------------------------------------------------
 ! R1    R(1,2)                  1.0877         estimate D2E/DX2                !
 ! R2    R(1,3)                  1.0877         estimate D2E/DX2                !
 ! R3    R(1,4)                  1.2786         estimate D2E/DX2                !
 ! R4    R(4,5)                  1.0207         estimate D2E/DX2                !
 ! R5    R(4,6)                  1.0207         estimate D2E/DX2                !
 ! A1    A(2,1,3)              120.516          estimate D2E/DX2                !
 ! A2    A(2,1,4)              119.742          estimate D2E/DX2                !
 ! A3    A(3,1,4)              119.742          estimate D2E/DX2                !
 ! A4    A(1,4,5)              121.7457         estimate D2E/DX2                !
 ! A5    A(1,4,6)              121.7457         estimate D2E/DX2                !
 ! A6    A(5,4,6)              116.5085         estimate D2E/DX2                !
 ! D1    D(2,1,4,5)             -0.0753         estimate D2E/DX2                !
 ! D2    D(2,1,4,6)           -179.9656         estimate D2E/DX2                !
 ! D3    D(3,1,4,5)            179.9656         estimate D2E/DX2                !
 ! D4    D(3,1,4,6)              0.0753         estimate D2E/DX2                !
 --------------------------------------------------------------------------------
 Trust Radius=3.00D-01 FncErr=1.00D-07 GrdErr=1.00D-06
 Number of steps in this run=  25 maximum allowed number of steps= 100.
 GradGradGradGradGradGradGradGradGradGradGradGradGradGradGradGradGradGrad

                          Input orientation:                          
 ---------------------------------------------------------------------
 Center     Atomic      Atomic             Coordinates (Angstroms)
 Number     Number       Type             X           Y           Z
 ---------------------------------------------------------------------
      1          6           0        0.676596    0.000000    0.000111
      2          1           0        1.216199    0.944415   -0.000091
      3          1           0        1.216199   -0.944415   -0.000091
      4          7           0       -0.601984    0.000000   -0.000209
      5          1           0       -1.139040    0.868018    0.000487
      6          1           0       -1.139040   -0.868018    0.000487
 ---------------------------------------------------------------------
                    Distance matrix (angstroms):
                    1          2          3          4          5
     1  C    0.000000
     2  H    1.087700   0.000000
     3  H    1.087700   1.888830   0.000000
     4  N    1.278580   2.048831   2.048831   0.000000
     5  H    2.012459   2.356478   2.971879   1.020728   0.000000
     6  H    2.012459   2.971879   2.356478   1.020728   1.736036
                    6
     6  H    0.000000
 Stoichiometry    CH4N(1+)
 Framework group  CS[SG(CN),X(H4)]
 Deg. of freedom     7
 Full point group                 CS      NOp   2
 Largest Abelian subgroup         CS      NOp   2
 Largest concise Abelian subgroup CS      NOp   2
                         Standard orientation:                         
 ---------------------------------------------------------------------
 Center     Atomic      Atomic             Coordinates (Angstroms)
 Number     Number       Type             X           Y           Z
 ---------------------------------------------------------------------
      1          6           0        0.000058   -0.676596    0.000000
      2          1           0        0.000395   -1.216199    0.944415
      3          1           0        0.000395   -1.216199   -0.944415
      4          7           0        0.000058    0.601984    0.000000
      5          1           0       -0.000772    1.139040    0.868018
      6          1           0       -0.000772    1.139040   -0.868018
 ---------------------------------------------------------------------
 Rotational constants (GHZ):    152.3831796     31.2664002     25.9432885
 Standard basis: 6-31G(d,p) (6D, 7F)
 There are    32 symmetry adapted basis functions of A'  symmetry.
 There are    18 symmetry adapted basis functions of A"  symmetry.
 Integral buffers will be    131072 words long.
 Raffenetti 2 integral format.
 Two-electron integral symmetry is turned on.
    50 basis functions,    84 primitive gaussians,    50 cartesian basis functions
     8 alpha electrons        8 beta electrons
       nuclear repulsion energy        38.6406646455 Hartrees.
 NAtoms=    6 NActive=    6 NUniq=    4 SFac= 1.69D+00 NAtFMM=   80 NAOKFM=F Big=F
 One-electron integrals computed using PRISM.
 NBasis=    50 RedAO= T  NBF=    32    18
 NBsUse=    50 1.00D-06 NBFU=    32    18
 Harris functional with IExCor=  402 diagonalized for initial guess.
 ExpMin= 1.61D-01 ExpMax= 4.17D+03 ExpMxC= 6.27D+02 IAcc=1 IRadAn=         1 AccDes= 0.00D+00
 HarFok:  IExCor=  402 AccDes= 0.00D+00 IRadAn=         1 IDoV= 1
 ScaDFX=  1.000000  1.000000  1.000000  1.000000
 FoFCou: FMM=F IPFlag=           0 FMFlag=      100000 FMFlg1=           0
         NFxFlg=           0 DoJE=T BraDBF=F KetDBF=T FulRan=T
         Omega=  0.000000  0.000000  1.000000  0.000000  0.000000 ICntrl=     500 IOpCl=  0
         NMat0=    1 NMatS0=    1 NMatT0=    0 NMatD0=    1 NMtDS0=    0 NMtDT0=    0
         I1Cent=           4 NGrid=           0.
 Petite list used in FoFCou.
 Initial guess orbital symmetries:
       Occupied  (A') (A') (A') (A') (A") (A') (A") (A')
       Virtual   (A') (A') (A") (A') (A") (A') (A') (A') (A") (A')
                 (A') (A') (A") (A") (A') (A') (A') (A") (A") (A')
                 (A") (A') (A") (A') (A') (A") (A') (A") (A') (A")
                 (A') (A') (A") (A") (A') (A') (A') (A") (A') (A")
                 (A') (A')
 The electronic state of the initial guess is 1-A'.
 Requested convergence on RMS density matrix=1.00D-08 within 128 cycles.
 Requested convergence on MAX density matrix=1.00D-06.
 Requested convergence on             energy=1.00D-06.
 No special actions if energy rises.
 Keep R1 ints in memory in canonical form, NReq=1757097.
 Integral accuracy reduced to 1.0D-05 until final iterations.
 Initial convergence to 1.0D-05 achieved.  Increase integral accuracy.
 SCF Done:  E(RB3LYP) =  -94.9836324940     A.U. after   10 cycles
             Convg  =    0.3807D-08             -V/T =  2.0104

 **********************************************************************

            Population analysis using the SCF density.

 **********************************************************************

 Orbital symmetries:
       Occupied  (A') (A') (A') (A') (A") (A') (A") (A')
       Virtual   (A') (A') (A") (A') (A") (A') (A') (A') (A") (A')
                 (A') (A') (A") (A") (A') (A') (A') (A") (A") (A')
                 (A") (A') (A") (A') (A") (A') (A') (A") (A') (A")
                 (A') (A') (A") (A") (A') (A') (A') (A") (A') (A")
                 (A') (A')
 The electronic state is 1-A'.
 Alpha  occ. eigenvalues --  -14.69019 -10.54754  -1.24711  -0.95167  -0.84684
 Alpha  occ. eigenvalues --   -0.78814  -0.68038  -0.65353
 Alpha virt. eigenvalues --   -0.32041  -0.16733  -0.13415  -0.10141  -0.01398
 Alpha virt. eigenvalues --    0.03748   0.26663   0.27541   0.31053   0.38201
 Alpha virt. eigenvalues --    0.44211   0.44675   0.54120   0.58442   0.60525
 Alpha virt. eigenvalues --    0.65686   0.93699   1.04514   1.04971   1.07567
 Alpha virt. eigenvalues --    1.21485   1.54591   1.59406   1.72664   1.81497
 Alpha virt. eigenvalues --    1.81650   1.87477   1.95377   2.08630   2.16591
 Alpha virt. eigenvalues --    2.23381   2.33842   2.44333   2.44598   2.49935
 Alpha virt. eigenvalues --    2.71185   2.88705   3.02451   3.19320   3.49553
 Alpha virt. eigenvalues --    3.64835   4.11419
     Molecular Orbital Coefficients:
                           1         2         3         4         5
                           O         O         O         O         O
     Eigenvalues --   -14.69019 -10.54754  -1.24711  -0.95167  -0.84684
   1 1   C  1S          0.00008   0.99271  -0.11055  -0.16302   0.00000
   2        2S          0.00030   0.04855   0.22226   0.34909   0.00000
   3        2PX         0.00000   0.00000  -0.00001   0.00008   0.00000
   4        2PY         0.00025   0.00103   0.15690  -0.01129   0.00000
   5        2PZ         0.00000   0.00000   0.00000   0.00000   0.24773
   6        3S         -0.00071  -0.00912   0.07062   0.28458   0.00000
   7        3PX         0.00000   0.00000   0.00000   0.00001   0.00000
   8        3PY        -0.00032   0.00046  -0.01479  -0.01344   0.00000
   9        3PZ         0.00000   0.00000   0.00000   0.00000   0.07553
  10        4XX         0.00000  -0.00993  -0.01562  -0.01671   0.00000
  11        4YY        -0.00005  -0.00874   0.01783  -0.00946   0.00000
  12        4ZZ         0.00010  -0.00938  -0.01389  -0.00295   0.00000
  13        4XY         0.00000   0.00000   0.00000   0.00000   0.00000
  14        4XZ         0.00000   0.00000   0.00000   0.00000   0.00000
  15        4YZ         0.00000   0.00000   0.00000   0.00000   0.01233
  16 2   H  1S         -0.00004  -0.00040   0.03638   0.12444   0.09095
  17        2S         -0.00001   0.00205  -0.00112   0.02779   0.03608
  18        3PX         0.00000   0.00000   0.00000   0.00000   0.00000
  19        3PY        -0.00008  -0.00007   0.00427   0.00545   0.00399
  20        3PZ         0.00003   0.00009  -0.00433  -0.00991  -0.00337
  21 3   H  1S         -0.00004  -0.00040   0.03638   0.12444  -0.09095
  22        2S         -0.00001   0.00205  -0.00112   0.02779  -0.03608
  23        3PX         0.00000   0.00000   0.00000   0.00000   0.00000
  24        3PY        -0.00008  -0.00007   0.00427   0.00545  -0.00399
  25        3PZ        -0.00003  -0.00009   0.00433   0.00991  -0.00337
  26 4   N  1S          0.99261  -0.00033  -0.19556   0.07605   0.00000
  27        2S          0.03479  -0.00017   0.41236  -0.16792   0.00000
  28        2PX         0.00000   0.00000  -0.00009   0.00021   0.00000
  29        2PY        -0.00020   0.00032  -0.08266  -0.32627   0.00000
  30        2PZ         0.00000   0.00000   0.00000   0.00000   0.45776
  31        3S          0.00468   0.00109   0.38843  -0.23064   0.00000
  32        3PX         0.00000   0.00000  -0.00005   0.00010   0.00000
  33        3PY        -0.00003   0.00046  -0.03013  -0.12108   0.00000
  34        3PZ         0.00000   0.00000   0.00000   0.00000   0.22252
  35        4XX        -0.00845  -0.00001  -0.01597   0.00478   0.00000
  36        4YY        -0.00833  -0.00076   0.00265   0.01607   0.00000
  37        4ZZ        -0.00845  -0.00050  -0.00927  -0.00774   0.00000
  38        4XY         0.00000   0.00000   0.00000   0.00002   0.00000
  39        4XZ         0.00000   0.00000   0.00000   0.00000  -0.00004
  40        4YZ         0.00000   0.00000   0.00000   0.00000   0.00140
  41 5   H  1S          0.00034   0.00015   0.10419  -0.14021   0.19832
  42        2S         -0.00057   0.00002  -0.00140  -0.02943   0.06285
  43        3PX         0.00000   0.00000   0.00001  -0.00001   0.00002
  44        3PY        -0.00003  -0.00025  -0.00992   0.00187  -0.01124
  45        3PZ        -0.00003  -0.00012  -0.01369   0.01335  -0.00775
  46 6   H  1S          0.00034   0.00015   0.10419  -0.14021  -0.19832
  47        2S         -0.00057   0.00002  -0.00140  -0.02943  -0.06285
  48        3PX         0.00000   0.00000   0.00001  -0.00001  -0.00002
  49        3PY        -0.00003  -0.00025  -0.00992   0.00187   0.01124
  50        3PZ         0.00003   0.00012   0.01369  -0.01335  -0.00775
                           6         7         8         9        10
                           O         O         O         V         V
     Eigenvalues --    -0.78814  -0.68038  -0.65353  -0.32041  -0.16733
   1 1   C  1S          0.05292   0.00000   0.00004   0.00003  -0.01827
   2        2S         -0.10364   0.00000  -0.00010  -0.00004   0.05967
   3        2PX        -0.00003   0.00000   0.33569   0.54107   0.00013
   4        2PY         0.43183   0.00000  -0.00009   0.00018  -0.14666
   5        2PZ         0.00000   0.42861   0.00000   0.00000   0.00000
   6        3S         -0.18171   0.00000  -0.00008  -0.00033   0.23987
   7        3PX        -0.00001   0.00000   0.15977   0.56084   0.00046
   8        3PY         0.09965   0.00000  -0.00001   0.00012  -0.49822
   9        3PZ         0.00000   0.20061   0.00000   0.00000   0.00000
  10        4XX        -0.00007   0.00000   0.00001   0.00000   0.00171
  11        4YY         0.02238   0.00000   0.00000   0.00000   0.01610
  12        4ZZ        -0.02312   0.00000   0.00001   0.00001  -0.01682
  13        4XY         0.00002   0.00000   0.02911  -0.01855  -0.00002
  14        4XZ         0.00000   0.00002   0.00000   0.00000   0.00000
  15        4YZ         0.00000  -0.02705   0.00000   0.00000   0.00000
  16 2   H  1S         -0.16316   0.23224   0.00003   0.00007  -0.01650
  17        2S         -0.08236   0.13925   0.00003   0.00010  -0.37205
  18        3PX         0.00000   0.00000   0.00659   0.01761   0.00001
  19        3PY        -0.00022   0.00731   0.00000   0.00001  -0.00630
  20        3PZ         0.00905  -0.00506   0.00000   0.00000  -0.00689
  21 3   H  1S         -0.16316  -0.23224   0.00003   0.00007  -0.01650
  22        2S         -0.08236  -0.13925   0.00003   0.00010  -0.37205
  23        3PX         0.00000   0.00000   0.00659   0.01761   0.00001
  24        3PY        -0.00022  -0.00731   0.00000   0.00001  -0.00630
  25        3PZ        -0.00905  -0.00506   0.00000   0.00000   0.00689
  26 4   N  1S         -0.01835   0.00000  -0.00009   0.00007  -0.11929
  27        2S          0.04674   0.00000   0.00021  -0.00016   0.22593
  28        2PX         0.00021   0.00000   0.52854  -0.40116  -0.00042
  29        2PY        -0.38496   0.00000   0.00029  -0.00026   0.17535
  30        2PZ         0.00000  -0.24390   0.00000   0.00000   0.00000
  31        3S          0.03243   0.00000   0.00028  -0.00050   1.64461
  32        3PX         0.00011   0.00000   0.34178  -0.44897  -0.00087
  33        3PY        -0.15958   0.00000   0.00018  -0.00026   0.27586
  34        3PZ         0.00000  -0.15001   0.00000   0.00000   0.00000
  35        4XX         0.00080   0.00000  -0.00002   0.00002  -0.01548
  36        4YY         0.00095   0.00000   0.00001   0.00000  -0.02033
  37        4ZZ        -0.01316   0.00000   0.00002   0.00001  -0.04254
  38        4XY         0.00002   0.00000  -0.01886  -0.02688   0.00000
  39        4XZ         0.00000   0.00003   0.00000   0.00000   0.00000
  40        4YZ         0.00000  -0.02640   0.00000   0.00000   0.00000
  41 5   H  1S         -0.09659  -0.14573  -0.00005   0.00016  -0.12220
  42        2S         -0.04819  -0.08382  -0.00002   0.00023  -0.98201
  43        3PX         0.00000  -0.00001   0.01404  -0.01434   0.00000
  44        3PY        -0.00524   0.00408   0.00001  -0.00001  -0.00147
  45        3PZ         0.00608   0.00301   0.00001   0.00000  -0.01541
  46 6   H  1S         -0.09659   0.14573  -0.00005   0.00016  -0.12220
  47        2S         -0.04819   0.08382  -0.00002   0.00023  -0.98201
  48        3PX         0.00000   0.00001   0.01404  -0.01434   0.00000
  49        3PY        -0.00524  -0.00408   0.00001  -0.00001  -0.00147
  50        3PZ        -0.00608   0.00301  -0.00001   0.00000   0.01541
                          11        12        13        14        15
                           V         V         V         V         V
     Eigenvalues --    -0.13415  -0.10141  -0.01398   0.03748   0.26663
   1 1   C  1S          0.00000  -0.13596   0.00000  -0.06498  -0.01856
   2        2S          0.00000   0.27900   0.00000   0.00931   0.44774
   3        2PX         0.00000   0.00016   0.00000  -0.00010  -0.00283
   4        2PY         0.00000  -0.15579   0.00000   0.18305   0.89981
   5        2PZ        -0.26174   0.00000  -0.40551   0.00000   0.00000
   6        3S          0.00000   1.96700   0.00000   2.16108   0.40504
   7        3PX         0.00000   0.00038   0.00000   0.00008   0.00328
   8        3PY         0.00000  -0.34015   0.00000   2.34519  -0.63116
   9        3PZ        -0.50356   0.00000  -1.38910   0.00000   0.00000
  10        4XX         0.00000   0.00919   0.00000   0.01209   0.02982
  11        4YY         0.00000  -0.01515   0.00000  -0.04824   0.00831
  12        4ZZ         0.00000  -0.02298   0.00000   0.03736   0.03589
  13        4XY         0.00000   0.00001   0.00000  -0.00002  -0.00014
  14        4XZ         0.00000   0.00000   0.00003   0.00000   0.00000
  15        4YZ        -0.03945   0.00000  -0.00949   0.00000   0.00000
  16 2   H  1S          0.09369  -0.12282   0.05890   0.04267  -0.01842
  17        2S          0.72423  -1.25912   1.45960   0.27963  -0.08122
  18        3PX         0.00000   0.00000   0.00002   0.00001   0.00000
  19        3PY        -0.00655   0.00143  -0.01081   0.01969  -0.01033
  20        3PZ         0.00341  -0.01145   0.00422   0.01335   0.02323
  21 3   H  1S         -0.09369  -0.12282  -0.05890   0.04267  -0.01842
  22        2S         -0.72423  -1.25912  -1.45960   0.27963  -0.08122
  23        3PX         0.00000   0.00000  -0.00002   0.00001   0.00000
  24        3PY         0.00655   0.00143   0.01081   0.01969  -0.01033
  25        3PZ         0.00341   0.01145   0.00422  -0.01335  -0.02323
  26 4   N  1S          0.00000   0.05682   0.00000   0.06140   0.05380
  27        2S          0.00000  -0.11436   0.00000  -0.06698  -0.05284
  28        2PX         0.00000   0.00011   0.00000  -0.00024  -0.00071
  29        2PY         0.00000   0.00241   0.00000   0.39195  -0.03929
  30        2PZ        -0.33540   0.00000   0.30672   0.00000   0.00000
  31        3S          0.00000  -0.70981   0.00000  -1.96095  -0.08587
  32        3PX         0.00000   0.00008   0.00000  -0.00033  -0.00007
  33        3PY         0.00000   0.13627   0.00000   1.64003   1.05041
  34        3PZ        -0.61211   0.00000   0.89578   0.00000   0.00000
  35        4XX         0.00000   0.00960   0.00000   0.03195  -0.03738
  36        4YY         0.00000   0.02218   0.00000   0.01470   0.17648
  37        4ZZ         0.00000   0.00311   0.00000  -0.00525  -0.04737
  38        4XY         0.00000  -0.00002   0.00000   0.00001   0.00015
  39        4XZ        -0.00003   0.00000   0.00001   0.00000   0.00000
  40        4YZ         0.04785   0.00000   0.02339   0.00000   0.00000
  41 5   H  1S          0.13844   0.04351  -0.00880  -0.06722  -0.06034
  42        2S          0.99376   0.33122  -0.93616  -0.58821  -0.14516
  43        3PX        -0.00002  -0.00001   0.00002   0.00000   0.00001
  44        3PY         0.01149   0.00899  -0.00164   0.00019   0.06309
  45        3PZ         0.00821   0.00304  -0.00369  -0.00906  -0.01006
  46 6   H  1S         -0.13844   0.04351   0.00880  -0.06722  -0.06034
  47        2S         -0.99376   0.33122   0.93616  -0.58821  -0.14516
  48        3PX         0.00002  -0.00001  -0.00002   0.00000   0.00001
  49        3PY        -0.01149   0.00899   0.00164   0.00019   0.06309
  50        3PZ         0.00821  -0.00304  -0.00369   0.00906   0.01006
                          16        17        18        19        20
                           V         V         V         V         V
     Eigenvalues --     0.27541   0.31053   0.38201   0.44211   0.44675
   1 1   C  1S          0.00006   0.00000  -0.06148   0.00088   0.06411
   2        2S         -0.00117   0.00000  -0.77979  -0.00192  -0.19302
   3        2PX        -0.97785   0.00000   0.00027   0.30134  -0.00356
   4        2PY        -0.00279   0.00000   0.12881  -0.00354  -0.26549
   5        2PZ         0.00000  -0.55632   0.00000   0.00000   0.00000
   6        3S         -0.00113   0.00000   1.54690   0.01143   0.97204
   7        3PX         1.09972   0.00000  -0.00008  -0.72716   0.00929
   8        3PY         0.00167   0.00000  -0.50678   0.00985   0.74122
   9        3PZ         0.00000   1.40841   0.00000   0.00000   0.00000
  10        4XX        -0.00008   0.00000   0.09007  -0.00083  -0.05700
  11        4YY         0.00007   0.00000  -0.10108   0.00221   0.16132
  12        4ZZ        -0.00012   0.00000  -0.21944   0.00003  -0.00807
  13        4XY        -0.04508   0.00000  -0.00002  -0.03476   0.00034
  14        4XZ         0.00000  -0.00005   0.00000   0.00000   0.00000
  15        4YZ         0.00000   0.10880   0.00000   0.00000   0.00000
  16 2   H  1S          0.00000  -0.39903  -0.57742   0.00261   0.17841
  17        2S          0.00005  -0.32316  -0.09746  -0.00097  -0.08782
  18        3PX        -0.00256  -0.00001   0.00003  -0.00790   0.00012
  19        3PY         0.00000   0.01517  -0.00821  -0.00029  -0.02361
  20        3PZ        -0.00006   0.03686  -0.02680   0.00010   0.00730
  21 3   H  1S          0.00000   0.39903  -0.57742   0.00261   0.17841
  22        2S          0.00005   0.32316  -0.09746  -0.00097  -0.08782
  23        3PX        -0.00256   0.00001   0.00003  -0.00790   0.00012
  24        3PY         0.00000  -0.01517  -0.00821  -0.00029  -0.02361
  25        3PZ         0.00006   0.03686   0.02680  -0.00010  -0.00730
  26 4   N  1S         -0.00015   0.00000  -0.01355  -0.00072  -0.05922
  27        2S          0.00004   0.00000  -0.23076   0.00264   0.20867
  28        2PX        -0.25078   0.00000  -0.00075  -0.93740   0.01198
  29        2PY        -0.00026   0.00000   0.19504  -0.00631  -0.44765
  30        2PZ         0.00000  -0.06646   0.00000   0.00000   0.00000
  31        3S          0.00032   0.00000   0.35079  -0.00738  -0.54219
  32        3PX         0.06881   0.00000   0.00062   1.28732  -0.01710
  33        3PY        -0.00284   0.00000  -0.06622   0.01631   1.24846
  34        3PZ         0.00000  -0.03410   0.00000   0.00000   0.00000
  35        4XX         0.00008   0.00000   0.04072   0.00190   0.15957
  36        4YY        -0.00060   0.00000  -0.05466  -0.00136  -0.10066
  37        4ZZ         0.00012   0.00000  -0.13746  -0.00217  -0.17820
  38        4XY         0.06962   0.00000   0.00005   0.02381  -0.00016
  39        4XZ         0.00000   0.00015   0.00000   0.00000   0.00000
  40        4YZ         0.00000  -0.12093   0.00000   0.00000   0.00000
  41 5   H  1S          0.00017  -0.38718  -0.22766  -0.00781  -0.64066
  42        2S          0.00064   0.24911   0.07617   0.00188   0.13477
  43        3PX         0.00628   0.00002  -0.00001   0.00459  -0.00011
  44        3PY        -0.00018  -0.04770  -0.01702   0.00003   0.00674
  45        3PZ         0.00003   0.00588  -0.02779  -0.00067  -0.05265
  46 6   H  1S          0.00017   0.38718  -0.22766  -0.00781  -0.64066
  47        2S          0.00064  -0.24911   0.07617   0.00188   0.13477
  48        3PX         0.00628  -0.00002  -0.00001   0.00459  -0.00011
  49        3PY        -0.00018   0.04770  -0.01702   0.00003   0.00674
  50        3PZ        -0.00003   0.00588   0.02779   0.00067   0.05265
                          21        22        23        24        25
                           V         V         V         V         V
     Eigenvalues --     0.54120   0.58442   0.60525   0.65686   0.93699
   1 1   C  1S          0.00000   0.00000   0.01586   0.01115   0.00976
   2        2S          0.00000   0.00000  -0.66420  -1.30764   0.65904
   3        2PX         0.00000   0.00000   0.00006  -0.00024   0.00016
   4        2PY         0.00000   0.00000  -0.10279   0.49084   0.02106
   5        2PZ        -0.79357   0.39988   0.00000   0.00000   0.00000
   6        3S          0.00000   0.00000   2.68919   2.44030  -3.93665
   7        3PX         0.00000   0.00000   0.00011   0.00049  -0.00013
   8        3PY         0.00000   0.00000   1.11593  -1.23890  -1.67255
   9        3PZ         2.18038  -1.41569   0.00000   0.00000   0.00000
  10        4XX         0.00000   0.00000  -0.02560  -0.11169   0.00887
  11        4YY         0.00000   0.00000   0.09361  -0.12592  -0.09917
  12        4ZZ         0.00000   0.00000  -0.08381   0.14946   0.14003
  13        4XY         0.00000   0.00000   0.00008  -0.00007  -0.00026
  14        4XZ         0.00003   0.00002   0.00000   0.00000   0.00000
  15        4YZ        -0.18070   0.08505   0.00000   0.00000   0.00000
  16 2   H  1S          0.35134  -0.36453  -0.04400   0.53668   0.12641
  17        2S         -1.66896   1.12023  -0.12521  -1.55292   0.24029
  18        3PX         0.00001   0.00002   0.00001   0.00002   0.00002
  19        3PY        -0.03268   0.05429  -0.02565  -0.01647   0.00816
  20        3PZ         0.06386  -0.02316   0.00955   0.07991  -0.02045
  21 3   H  1S         -0.35134   0.36453  -0.04400   0.53668   0.12641
  22        2S          1.66896  -1.12023  -0.12521  -1.55292   0.24029
  23        3PX        -0.00001  -0.00002   0.00001   0.00002   0.00002
  24        3PY         0.03268  -0.05429  -0.02565  -0.01647   0.00816
  25        3PZ         0.06386  -0.02316  -0.00955  -0.07991   0.02045
  26 4   N  1S          0.00000   0.00000   0.02312  -0.00736  -0.08115
  27        2S          0.00000   0.00000  -0.47235  -0.08454  -1.69724
  28        2PX         0.00000   0.00000   0.00058  -0.00015   0.00014
  29        2PY         0.00000   0.00000  -0.76009   0.20544   0.18077
  30        2PZ        -0.31581  -0.82126   0.00000   0.00000   0.00000
  31        3S          0.00000   0.00000   0.13544   0.21074   5.64365
  32        3PX         0.00000   0.00000  -0.00126   0.00035  -0.00053
  33        3PY         0.00000   0.00000   2.11161  -0.60491  -1.41450
  34        3PZ         0.22545   1.95215   0.00000   0.00000   0.00000
  35        4XX         0.00000   0.00000  -0.10149   0.01740  -0.08371
  36        4YY         0.00000   0.00000  -0.15909  -0.04021  -0.29119
  37        4ZZ         0.00000   0.00000   0.11931  -0.01519  -0.32991
  38        4XY         0.00000   0.00000  -0.00020   0.00007   0.00026
  39        4XZ        -0.00024  -0.00015   0.00000   0.00000   0.00000
  40        4YZ         0.19695   0.11600   0.00000   0.00000   0.00000
  41 5   H  1S          0.30703   0.23133   0.38618  -0.01411  -0.18503
  42        2S         -0.75500  -1.30256  -1.28023   0.26870  -0.41837
  43        3PX        -0.00009  -0.00007  -0.00008   0.00000  -0.00012
  44        3PY         0.02344   0.07303   0.03264  -0.02655  -0.00185
  45        3PZ         0.05450   0.09362   0.09464  -0.00414   0.03428
  46 6   H  1S         -0.30703  -0.23133   0.38618  -0.01411  -0.18503
  47        2S          0.75500   1.30256  -1.28023   0.26870  -0.41837
  48        3PX         0.00009   0.00007  -0.00008   0.00000  -0.00012
  49        3PY        -0.02344  -0.07303   0.03264  -0.02655  -0.00185
  50        3PZ         0.05450   0.09362  -0.09464   0.00414  -0.03428
                          26        27        28        29        30
                           V         V         V         V         V
     Eigenvalues --     1.04514   1.04971   1.07567   1.21485   1.54591
   1 1   C  1S          0.00000   0.00000  -0.00002   0.00000  -0.02813
   2        2S          0.00000   0.00000  -0.00016   0.00000  -0.16384
   3        2PX         0.00000   0.00000   0.18948   0.00000   0.00004
   4        2PY         0.00000   0.00000   0.00011   0.00000   0.00057
   5        2PZ         0.00807   0.05373   0.00000  -0.00011   0.00000
   6        3S          0.00000   0.00000   0.00193   0.00000   0.66785
   7        3PX         0.00000   0.00000  -0.10393   0.00000   0.00091
   8        3PY         0.00000   0.00000   0.00082   0.00000  -0.35045
   9        3PZ        -0.37940  -2.48883   0.00000  -0.00282   0.00000
  10        4XX         0.00000   0.00000   0.00008   0.00000  -0.66979
  11        4YY         0.00000   0.00000   0.00005   0.00000  -0.02610
  12        4ZZ         0.00000   0.00000  -0.00016   0.00000   0.54848
  13        4XY         0.00000   0.00000  -0.54755   0.00000   0.00065
  14        4XZ         0.52348  -0.08067   0.00000   0.50418   0.00000
  15        4YZ        -0.02137  -0.14007   0.00000   0.00043   0.00000
  16 2   H  1S          0.08660   0.56635  -0.00015   0.00089  -0.38557
  17        2S          0.12390   0.81588  -0.00005   0.00086  -0.08934
  18        3PX         0.18659  -0.02885   0.13178   0.27240  -0.00039
  19        3PY        -0.01430  -0.09562  -0.00004  -0.00006   0.17982
  20        3PZ        -0.00310  -0.02063  -0.00008   0.00001  -0.03517
  21 3   H  1S         -0.08660  -0.56635  -0.00015  -0.00089  -0.38557
  22        2S         -0.12390  -0.81588  -0.00005  -0.00086  -0.08934
  23        3PX        -0.18659   0.02885   0.13178  -0.27240  -0.00039
  24        3PY         0.01430   0.09562  -0.00004   0.00006   0.17982
  25        3PZ        -0.00310  -0.02063   0.00008   0.00001   0.03517
  26 4   N  1S          0.00000   0.00000   0.00004   0.00000  -0.03223
  27        2S          0.00000   0.00000   0.00053   0.00000  -0.17452
  28        2PX         0.00000   0.00000   0.12916   0.00000   0.00007
  29        2PY         0.00000   0.00000  -0.00007   0.00000  -0.08308
  30        2PZ        -0.06343  -0.41540   0.00000  -0.00048   0.00000
  31        3S          0.00000   0.00000  -0.00211   0.00000   0.72663
  32        3PX         0.00000   0.00000  -0.05029   0.00000  -0.00131
  33        3PY         0.00000   0.00000   0.00110   0.00000   0.42150
  34        3PZ         0.38525   2.52197   0.00000   0.00210   0.00000
  35        4XX         0.00000   0.00000  -0.00048   0.00000  -0.55829
  36        4YY         0.00000   0.00000   0.00010   0.00000  -0.00467
  37        4ZZ         0.00000   0.00000   0.00062   0.00000   0.40132
  38        4XY         0.00000   0.00000   0.55720   0.00000   0.00015
  39        4XZ         0.53430  -0.08109   0.00000  -0.46835   0.00000
  40        4YZ        -0.03698  -0.24712   0.00000  -0.00125   0.00000
  41 5   H  1S         -0.09191  -0.59954   0.00008  -0.00023  -0.36232
  42        2S         -0.08492  -0.55817  -0.00010  -0.00048  -0.12520
  43        3PX         0.19161  -0.02903   0.14121  -0.26557   0.00037
  44        3PY        -0.01421  -0.09599  -0.00013  -0.00048  -0.07581
  45        3PZ         0.01288   0.08510   0.00022   0.00012  -0.02498
  46 6   H  1S          0.09191   0.59954   0.00008   0.00023  -0.36232
  47        2S          0.08492   0.55817  -0.00010   0.00048  -0.12520
  48        3PX        -0.19161   0.02903   0.14121   0.26557   0.00037
  49        3PY         0.01421   0.09599  -0.00013   0.00048  -0.07581
  50        3PZ         0.01288   0.08510  -0.00022   0.00012   0.02498
                          31        32        33        34        35
                           V         V         V         V         V
     Eigenvalues --     1.59406   1.72664   1.81497   1.81650   1.87477
   1 1   C  1S          0.00000  -0.04315   0.00000   0.02894   0.00004
   2        2S          0.00000  -0.23597   0.00000   0.48395   0.00170
   3        2PX         0.00000   0.00001   0.00000   0.00036  -0.15279
   4        2PY         0.00000  -0.08839   0.00000   0.30064   0.00125
   5        2PZ        -0.01391   0.00000   0.09741   0.00000   0.00000
   6        3S          0.00000   0.36728   0.00000   0.22218   0.00177
   7        3PX         0.00000   0.00021   0.00000   0.00180  -0.49078
   8        3PY         0.00000   0.71536   0.00000   0.35872   0.00167
   9        3PZ        -0.51737   0.00000  -1.34120   0.00000   0.00000
  10        4XX         0.00000  -0.39441   0.00000   0.48315   0.00059
  11        4YY         0.00000   0.64299   0.00000  -0.03539   0.00028
  12        4ZZ         0.00000  -0.38406   0.00000  -0.22045  -0.00045
  13        4XY         0.00000   0.00025   0.00000   0.00272  -0.53821
  14        4XZ        -0.00044   0.00000  -0.00028   0.00000   0.00000
  15        4YZ         0.61606   0.00000  -0.03892   0.00000   0.00000
  16 2   H  1S          0.48527   0.14401   0.16114   0.16292   0.00026
  17        2S         -0.00272   0.00075   0.54995   0.02656   0.00020
  18        3PX        -0.00029  -0.00022   0.00008  -0.00096   0.43079
  19        3PY         0.17855  -0.32945   0.19861  -0.17148  -0.00056
  20        3PZ         0.31417  -0.12565   0.10735   0.05877  -0.00013
  21 3   H  1S         -0.48527   0.14401  -0.16114   0.16292   0.00026
  22        2S          0.00272   0.00075  -0.54995   0.02656   0.00020
  23        3PX         0.00029  -0.00022  -0.00008  -0.00096   0.43079
  24        3PY        -0.17855  -0.32945  -0.19861  -0.17148  -0.00056
  25        3PZ         0.31417   0.12565   0.10735  -0.05877   0.00013
  26 4   N  1S          0.00000  -0.00872   0.00000  -0.00034   0.00000
  27        2S          0.00000  -0.50318   0.00000  -0.05079  -0.00020
  28        2PX         0.00000  -0.00001   0.00000  -0.00007   0.02870
  29        2PY         0.00000   0.40366   0.00000  -0.09364  -0.00016
  30        2PZ        -0.03098   0.00000  -0.25353   0.00000   0.00000
  31        3S          0.00000   0.12568   0.00000  -0.16378  -0.00144
  32        3PX         0.00000  -0.00047   0.00000  -0.00282   0.58161
  33        3PY         0.00000  -0.18384   0.00000   1.12776   0.00431
  34        3PZ        -0.10845   0.00000   1.70666   0.00000   0.00000
  35        4XX         0.00000  -0.48148   0.00000  -0.34226  -0.00190
  36        4YY         0.00000   0.26992   0.00000  -0.37615  -0.00139
  37        4ZZ         0.00000  -0.05402   0.00000   0.60380   0.00251
  38        4XY         0.00000  -0.00017   0.00000   0.00132  -0.53339
  39        4XZ         0.00043   0.00000  -0.00104   0.00000   0.00000
  40        4YZ        -0.28466   0.00000   0.44699   0.00000   0.00000
  41 5   H  1S          0.22841  -0.05780  -0.68269  -0.40724  -0.00156
  42        2S         -0.00660  -0.06974  -0.28885  -0.10236  -0.00017
  43        3PX         0.00022   0.00043  -0.00072   0.00156  -0.36065
  44        3PY         0.13806   0.01286   0.29813  -0.36160  -0.00150
  45        3PZ         0.01282  -0.06315  -0.40055   0.03194  -0.00036
  46 6   H  1S         -0.22841  -0.05780   0.68269  -0.40724  -0.00156
  47        2S          0.00660  -0.06974   0.28885  -0.10236  -0.00017
  48        3PX        -0.00022   0.00043   0.00072   0.00156  -0.36065
  49        3PY        -0.13806   0.01286  -0.29813  -0.36160  -0.00150
  50        3PZ         0.01282   0.06315  -0.40055  -0.03194   0.00036
                          36        37        38        39        40
                           V         V         V         V         V
     Eigenvalues --     1.95377   2.08630   2.16591   2.23381   2.33842
   1 1   C  1S          0.00000   0.00011   0.00000   0.04037  -0.00001
   2        2S          0.00000  -0.00122   0.00000  -0.43786  -0.00164
   3        2PX         0.00000  -0.10280   0.00000  -0.00007   0.10558
   4        2PY         0.00000  -0.00232   0.00000  -0.89592  -0.00403
   5        2PZ        -0.15441   0.00000   0.00026   0.00000   0.00000
   6        3S          0.00000  -0.00848   0.00000  -2.80510  -0.00867
   7        3PX         0.00000  -0.08747   0.00000   0.00019  -0.03427
   8        3PY         0.00000  -0.00478   0.00000  -1.63077  -0.00642
   9        3PZ         0.76111   0.00000   0.00089   0.00000   0.00000
  10        4XX         0.00000   0.00113   0.00000   0.63377   0.00142
  11        4YY         0.00000  -0.00149   0.00000  -0.68794  -0.00161
  12        4ZZ         0.00000   0.00064   0.00000   0.21800  -0.00004
  13        4XY         0.00000   0.43962   0.00000  -0.00357   0.72963
  14        4XZ         0.00006   0.00000  -0.51637   0.00000   0.00000
  15        4YZ         0.20505   0.00000   0.00056   0.00000   0.00000
  16 2   H  1S          0.02235   0.00033   0.00021   0.11297   0.00042
  17        2S         -0.45771  -0.00019  -0.00076  -0.13305  -0.00118
  18        3PX        -0.00003   0.53532   0.52932  -0.00216   0.30086
  19        3PY        -0.49191   0.00052  -0.00052   0.04693   0.00095
  20        3PZ        -0.23150   0.00034  -0.00007   0.21488   0.00164
  21 3   H  1S         -0.02235   0.00033  -0.00021   0.11297   0.00042
  22        2S          0.45771  -0.00019   0.00076  -0.13305  -0.00118
  23        3PX         0.00003   0.53532  -0.52932  -0.00216   0.30086
  24        3PY         0.49191   0.00052   0.00052   0.04693   0.00095
  25        3PZ        -0.23150  -0.00034  -0.00007  -0.21488  -0.00164
  26 4   N  1S          0.00000  -0.00021   0.00000  -0.07650  -0.00035
  27        2S          0.00000  -0.00160   0.00000  -0.48821  -0.00185
  28        2PX         0.00000  -0.09987   0.00000   0.00034  -0.03469
  29        2PY         0.00000  -0.00073   0.00000  -0.37829  -0.00083
  30        2PZ        -0.04693   0.00000  -0.00031   0.00000   0.00000
  31        3S          0.00000   0.00981   0.00000   3.24337   0.01281
  32        3PX         0.00000  -0.24178   0.00000   0.00067   0.07240
  33        3PY         0.00000  -0.00658   0.00000  -2.17507  -0.00767
  34        3PZ        -0.07475   0.00000  -0.00050   0.00000   0.00000
  35        4XX         0.00000  -0.00099   0.00000  -0.75444  -0.00371
  36        4YY         0.00000   0.00185   0.00000   0.79763   0.00452
  37        4ZZ         0.00000  -0.00086   0.00000  -0.09886  -0.00150
  38        4XY         0.00000  -0.17008   0.00000  -0.00235   0.84643
  39        4XZ         0.00056   0.00000  -0.46476   0.00000   0.00000
  40        4YZ        -0.29366   0.00000   0.00031   0.00000   0.00000
  41 5   H  1S          0.16239  -0.00031  -0.00031  -0.15751  -0.00024
  42        2S         -0.13289   0.00069   0.00044   0.32898   0.00075
  43        3PX        -0.00042   0.49524   0.47559   0.00031  -0.47170
  44        3PY         0.41507   0.00128   0.00007   0.24864  -0.00019
  45        3PZ        -0.21048  -0.00029   0.00002  -0.27984  -0.00033
  46 6   H  1S         -0.16239  -0.00031   0.00031  -0.15751  -0.00024
  47        2S          0.13289   0.00069  -0.00044   0.32898   0.00075
  48        3PX         0.00042   0.49524  -0.47559   0.00031  -0.47170
  49        3PY        -0.41507   0.00128  -0.00007   0.24864  -0.00019
  50        3PZ        -0.21048   0.00029   0.00002   0.27984   0.00033
                          41        42        43        44        45
                           V         V         V         V         V
     Eigenvalues --     2.44333   2.44598   2.49935   2.71185   2.88705
   1 1   C  1S          0.00000   0.00000  -0.04984   0.01623  -0.01980
   2        2S          0.00000   0.00000   0.17506  -0.47650   0.27866
   3        2PX         0.00000   0.00000  -0.00028  -0.00032   0.00013
   4        2PY         0.00000   0.00000  -0.21669  -0.32875  -0.23077
   5        2PZ        -0.03480  -0.47289   0.00000   0.00000   0.00000
   6        3S          0.00000   0.00000   0.09100  -0.47918   0.46239
   7        3PX         0.00000   0.00000   0.00018   0.00000   0.00005
   8        3PY         0.00000   0.00000  -0.62522   0.01826   0.01999
   9        3PZ        -0.05297  -0.71350   0.00000   0.00000   0.00000
  10        4XX         0.00000   0.00000  -0.22412   0.31455  -0.19949
  11        4YY         0.00000   0.00000   0.44088  -0.68571  -0.06624
  12        4ZZ         0.00000   0.00000  -0.45722   0.09354   0.54728
  13        4XY         0.00000   0.00000  -0.00208  -0.00052  -0.00042
  14        4XZ        -0.59851   0.04403   0.00000   0.00000   0.00000
  15        4YZ        -0.02614  -0.34364   0.00000   0.00000   0.00000
  16 2   H  1S          0.00315   0.04489   0.01536   0.11440  -0.29547
  17        2S          0.04029   0.54251  -0.33953   0.18685  -0.15806
  18        3PX         0.42876  -0.03169  -0.00065  -0.00026   0.00015
  19        3PY         0.03407   0.45537   0.41704  -0.01352  -0.36853
  20        3PZ        -0.01702  -0.23288   0.51478  -0.38955   0.41670
  21 3   H  1S         -0.00315  -0.04489   0.01536   0.11440  -0.29547
  22        2S         -0.04029  -0.54251  -0.33953   0.18685  -0.15806
  23        3PX        -0.42876   0.03169  -0.00065  -0.00026   0.00015
  24        3PY        -0.03407  -0.45537   0.41704  -0.01352  -0.36853
  25        3PZ        -0.01702  -0.23288  -0.51478   0.38955  -0.41670
  26 4   N  1S          0.00000   0.00000  -0.02911  -0.10201  -0.11928
  27        2S          0.00000   0.00000  -0.29511   0.33881   0.59087
  28        2PX         0.00000   0.00000   0.00012  -0.00009  -0.00060
  29        2PY         0.00000   0.00000   0.19594  -0.25695   0.36500
  30        2PZ         0.02795   0.36657   0.00000   0.00000   0.00000
  31        3S          0.00000   0.00000   1.02660   1.11614   1.00324
  32        3PX         0.00000   0.00000  -0.00023  -0.00029  -0.00051
  33        3PY         0.00000   0.00000  -0.15801   0.04077   0.52154
  34        3PZ         0.05976   0.80353   0.00000   0.00000   0.00000
  35        4XX         0.00000   0.00000  -0.15225  -0.53281  -0.58075
  36        4YY         0.00000   0.00000   0.26585   0.82502  -0.32412
  37        4ZZ         0.00000   0.00000  -0.32908  -0.79415   0.44844
  38        4XY         0.00000   0.00000  -0.00240  -0.00126  -0.00089
  39        4XZ         0.70306  -0.05361   0.00000   0.00000   0.00000
  40        4YZ        -0.02511  -0.34426   0.00000   0.00000   0.00000
  41 5   H  1S         -0.00647  -0.08951  -0.02598  -0.01961  -0.47800
  42        2S         -0.03632  -0.48287  -0.07752  -0.26586  -0.43032
  43        3PX        -0.52121   0.03911   0.00107   0.00033  -0.00064
  44        3PY         0.03578   0.48241  -0.27947  -0.38013   0.45966
  45        3PZ         0.01731   0.22719   0.20335   0.44293   0.64836
  46 6   H  1S          0.00647   0.08951  -0.02598  -0.01961  -0.47800
  47        2S          0.03632   0.48287  -0.07752  -0.26586  -0.43032
  48        3PX         0.52121  -0.03911   0.00107   0.00033  -0.00064
  49        3PY        -0.03578  -0.48241  -0.27947  -0.38013   0.45966
  50        3PZ         0.01731   0.22719  -0.20335  -0.44293  -0.64836
                          46        47        48        49        50
                           V         V         V         V         V
     Eigenvalues --     3.02451   3.19320   3.49553   3.64835   4.11419
   1 1   C  1S          0.00000   0.18141   0.00000  -0.20671  -0.37870
   2        2S          0.00000  -0.89014   0.00000   1.55442   2.43982
   3        2PX         0.00000  -0.00017   0.00000   0.00004  -0.00021
   4        2PY         0.00000   0.55008   0.00000   0.29864  -0.08834
   5        2PZ         0.74008   0.00000  -0.41776   0.00000   0.00000
   6        3S          0.00000  -1.99027   0.00000  -0.80767   1.21849
   7        3PX         0.00000  -0.00014   0.00000   0.00007   0.00008
   8        3PY         0.00000  -0.31303   0.00000  -0.74363   0.06899
   9        3PZ         0.16398   0.00000  -0.57126   0.00000   0.00000
  10        4XX         0.00000   0.90208   0.00000  -0.81053  -1.27217
  11        4YY         0.00000   0.95508   0.00000  -0.61016  -1.95186
  12        4ZZ         0.00000  -0.45573   0.00000  -0.98461  -2.04901
  13        4XY         0.00000   0.00019   0.00000   0.00026   0.00007
  14        4XZ         0.00090   0.00000  -0.00020   0.00000   0.00000
  15        4YZ        -0.63271   0.00000   1.19167   0.00000   0.00000
  16 2   H  1S         -0.40941   0.42516   0.53826   0.18264   0.40163
  17        2S         -0.26462   0.41139   0.31133  -0.15226  -0.20612
  18        3PX        -0.00007  -0.00027  -0.00033  -0.00002  -0.00020
  19        3PY        -0.35382   0.52769   0.12181   0.08682   0.25505
  20        3PZ         0.62103  -0.42688  -0.62343  -0.06444  -0.37129
  21 3   H  1S          0.40941   0.42516  -0.53826   0.18264   0.40163
  22        2S          0.26462   0.41139  -0.31133  -0.15226  -0.20612
  23        3PX         0.00007  -0.00027   0.00033  -0.00002  -0.00020
  24        3PY         0.35382   0.52769  -0.12181   0.08682   0.25505
  25        3PZ         0.62103   0.42688  -0.62343   0.06444   0.37129
  26 4   N  1S          0.00000  -0.15248   0.00000  -0.42076   0.18341
  27        2S          0.00000  -0.01919   0.00000   0.72697  -0.30717
  28        2PX         0.00000  -0.00031   0.00000   0.00045  -0.00041
  29        2PY         0.00000   0.50560   0.00000  -0.14457  -0.07701
  30        2PZ         0.61446   0.00000   0.44028   0.00000   0.00000
  31        3S          0.00000   2.30140   0.00000   3.29387  -1.07791
  32        3PX         0.00000  -0.00037   0.00000  -0.00017  -0.00006
  33        3PY         0.00000  -0.25392   0.00000  -0.75227   0.03418
  34        3PZ         0.81376   0.00000   0.71634   0.00000   0.00000
  35        4XX         0.00000  -0.69670   0.00000  -1.22524   0.35865
  36        4YY         0.00000  -0.73433   0.00000  -1.54406   1.02705
  37        4ZZ         0.00000   0.37387   0.00000  -1.69283   1.13686
  38        4XY         0.00000  -0.00016   0.00000   0.00059  -0.00033
  39        4XZ        -0.00172   0.00000  -0.00104   0.00000   0.00000
  40        4YZ         0.71127   0.00000   1.30858   0.00000   0.00000
  41 5   H  1S         -0.58892  -0.38186  -0.73390   0.41177  -0.39954
  42        2S         -0.46515  -0.27842  -0.26661  -0.24565   0.08423
  43        3PX        -0.00030  -0.00060  -0.00077   0.00045  -0.00049
  44        3PY         0.40461   0.41014   0.18210  -0.13240   0.29655
  45        3PZ         0.60526   0.23413   0.65506  -0.44827   0.33699
  46 6   H  1S          0.58892  -0.38186   0.73390   0.41177  -0.39954
  47        2S          0.46515  -0.27842   0.26661  -0.24565   0.08423
  48        3PX         0.00030  -0.00060   0.00077   0.00045  -0.00049
  49        3PY        -0.40461   0.41014  -0.18210  -0.13240   0.29655
  50        3PZ         0.60526  -0.23413   0.65506   0.44827  -0.33699
     Density Matrix:
                           1         2         3         4         5
   1 1   C  1S          2.05416
   2        2S         -0.07754   0.36872
   3        2PX         0.00000  -0.00001   0.22538
   4        2PY         0.01674  -0.02755  -0.00008   0.42245
   5        2PZ         0.00000   0.00000   0.00000   0.00000   0.49015
   6        3S         -0.14574   0.26686   0.00000  -0.14122   0.00000
   7        3PX         0.00001  -0.00002   0.10727  -0.00004   0.00000
   8        3PY         0.01911  -0.03657  -0.00001   0.08173   0.00000
   9        3PZ         0.00000   0.00000   0.00000   0.00000   0.20938
  10        4XX        -0.01082  -0.01956   0.00000  -0.00461   0.00000
  11        4YY        -0.01584  -0.00416   0.00000   0.02512   0.00000
  12        4ZZ        -0.01704  -0.00435   0.00001  -0.02428   0.00000
  13        4XY         0.00000  -0.00001   0.01954   0.00001   0.00000
  14        4XZ         0.00000   0.00000   0.00000   0.00000   0.00002
  15        4YZ         0.00000   0.00000   0.00000   0.00000  -0.01708
  16 2   H  1S         -0.06669   0.13684   0.00005  -0.13231   0.24415
  17        2S         -0.01347   0.03618   0.00003  -0.07211   0.13725
  18        3PX         0.00000   0.00000   0.00443   0.00000   0.00000
  19        3PY        -0.00287   0.00574   0.00000   0.00103   0.00824
  20        3PZ         0.00532  -0.01071   0.00000   0.00668  -0.00601
  21 3   H  1S         -0.06669   0.13684   0.00005  -0.13231  -0.24415
  22        2S         -0.01347   0.03618   0.00003  -0.07211  -0.13725
  23        3PX         0.00000   0.00000   0.00443   0.00000   0.00000
  24        3PY        -0.00287   0.00574   0.00000   0.00103  -0.00824
  25        3PZ        -0.00532   0.01071   0.00000  -0.00668  -0.00601
  26 4   N  1S          0.01601  -0.02946  -0.00004  -0.07844   0.00000
  27        2S         -0.03181   0.05638   0.00011   0.17358   0.00000
  28        2PX         0.00002  -0.00004   0.35485   0.00005   0.00000
  29        2PY         0.08454  -0.18471   0.00016  -0.35105   0.00000
  30        2PZ         0.00000   0.00000   0.00000   0.00000   0.01772
  31        3S         -0.00509   0.00502   0.00015   0.15512   0.00000
  32        3PX         0.00002  -0.00004   0.22947   0.00002   0.00000
  33        3PY         0.03016  -0.06481   0.00011  -0.14455   0.00000
  34        3PZ         0.00000   0.00000   0.00000   0.00000  -0.01834
  35        4XX         0.00203  -0.00394  -0.00001  -0.00444   0.00000
  36        4YY        -0.00723   0.01212   0.00001   0.00129   0.00000
  37        4ZZ         0.00219  -0.00685   0.00001  -0.01411   0.00000
  38        4XY         0.00000   0.00001  -0.01266   0.00002   0.00000
  39        4XZ         0.00000   0.00000   0.00000   0.00000   0.00001
  40        4YZ         0.00000   0.00000   0.00000   0.00000  -0.02194
  41 5   H  1S          0.01274  -0.03154  -0.00005  -0.04756  -0.02666
  42        2S          0.00484  -0.01118  -0.00001  -0.04140  -0.04071
  43        3PX         0.00000   0.00000   0.00943   0.00000   0.00000
  44        3PY         0.00052  -0.00204   0.00001  -0.00768  -0.00207
  45        3PZ        -0.00092   0.00196   0.00001   0.00065  -0.00126
  46 6   H  1S          0.01274  -0.03154  -0.00005  -0.04756   0.02666
  47        2S          0.00484  -0.01118  -0.00001  -0.04140   0.04071
  48        3PX         0.00000   0.00000   0.00943   0.00000   0.00000
  49        3PY         0.00052  -0.00204   0.00001  -0.00768   0.00207
  50        3PZ         0.00092  -0.00196  -0.00001  -0.00065  -0.00126
                           6         7         8         9        10
   6        3S          0.23814
   7        3PX        -0.00002   0.05106
   8        3PY        -0.04596  -0.00001   0.02066
   9        3PZ         0.00000   0.00000   0.00000   0.09189
  10        4XX        -0.01151   0.00000   0.00089   0.00000   0.00124
  11        4YY        -0.01084   0.00000   0.00418   0.00000  -0.00007
  12        4ZZ         0.00493   0.00000  -0.00413   0.00000   0.00072
  13        4XY        -0.00001   0.00930   0.00000   0.00000   0.00000
  14        4XZ         0.00000   0.00000   0.00000   0.00001   0.00000
  15        4YZ         0.00000   0.00000   0.00000  -0.00899   0.00000
  16 2   H  1S          0.13527   0.00002  -0.03694   0.10692  -0.00526
  17        2S          0.04555   0.00001  -0.01713   0.06132  -0.00092
  18        3PX         0.00000   0.00211   0.00000   0.00000   0.00000
  19        3PY         0.00378   0.00000  -0.00032   0.00353  -0.00031
  20        3PZ        -0.00954   0.00000   0.00220  -0.00254   0.00046
  21 3   H  1S          0.13527   0.00002  -0.03694  -0.10692  -0.00526
  22        2S          0.04555   0.00001  -0.01713  -0.06132  -0.00092
  23        3PX         0.00000   0.00211   0.00000   0.00000   0.00000
  24        3PY         0.00378   0.00000  -0.00032  -0.00353  -0.00031
  25        3PZ         0.00954   0.00000  -0.00220  -0.00254  -0.00046
  26 4   N  1S          0.02092  -0.00003  -0.00056   0.00000   0.00358
  27        2S         -0.05436   0.00007   0.00161   0.00000  -0.00728
  28        2PX        -0.00006   0.16889   0.00003   0.00000   0.00000
  29        2PY        -0.05748   0.00010  -0.06551   0.00000   0.01353
  30        2PZ         0.00000   0.00000   0.00000  -0.02871   0.00000
  31        3S         -0.08822   0.00009   0.00117   0.00000  -0.00446
  32        3PX        -0.00005   0.10922   0.00002   0.00000   0.00000
  33        3PY        -0.01518   0.00006  -0.02766   0.00000   0.00500
  34        3PZ         0.00000   0.00000   0.00000  -0.02657   0.00000
  35        4XX         0.00019  -0.00001   0.00051   0.00000   0.00034
  36        4YY         0.00920   0.00000  -0.00032   0.00000  -0.00060
  37        4ZZ        -0.00091   0.00001  -0.00214   0.00000   0.00056
  38        4XY         0.00001  -0.00603   0.00000   0.00000   0.00000
  39        4XZ         0.00000   0.00000   0.00000   0.00001   0.00000
  40        4YZ         0.00000   0.00000   0.00000  -0.01038   0.00000
  41 5   H  1S         -0.02999  -0.00002  -0.01857  -0.02851   0.00144
  42        2S          0.00057   0.00000  -0.00877  -0.02413   0.00103
  43        3PX        -0.00001   0.00449   0.00000   0.00000   0.00000
  44        3PY         0.00157   0.00000  -0.00080  -0.00006   0.00025
  45        3PZ         0.00346   0.00000   0.00126   0.00004  -0.00002
  46 6   H  1S         -0.02999  -0.00002  -0.01857   0.02851   0.00144
  47        2S          0.00057   0.00000  -0.00877   0.02413   0.00103
  48        3PX        -0.00001   0.00449   0.00000   0.00000   0.00000
  49        3PY         0.00157   0.00000  -0.00080   0.00006   0.00025
  50        3PZ        -0.00346   0.00000  -0.00126   0.00004   0.00002
                          11        12        13        14        15
  11        4YY         0.00197
  12        4ZZ        -0.00131   0.00165
  13        4XY         0.00000   0.00000   0.00169
  14        4XZ         0.00000   0.00000   0.00000   0.00000
  15        4YZ         0.00000   0.00000   0.00000   0.00000   0.00177
  16 2   H  1S         -0.00835   0.00581   0.00000   0.00001  -0.01032
  17        2S         -0.00429   0.00364   0.00000   0.00000  -0.00664
  18        3PX         0.00000   0.00000   0.00038   0.00000   0.00000
  19        3PY         0.00004  -0.00014   0.00000   0.00000  -0.00030
  20        3PZ         0.00044  -0.00024   0.00000   0.00000   0.00019
  21 3   H  1S         -0.00835   0.00581   0.00000  -0.00001   0.01032
  22        2S         -0.00429   0.00364   0.00000   0.00000   0.00664
  23        3PX         0.00000   0.00000   0.00038   0.00000   0.00000
  24        3PY         0.00004  -0.00014   0.00000   0.00000   0.00030
  25        3PZ        -0.00044   0.00024   0.00000   0.00000   0.00019
  26 4   N  1S         -0.00933   0.00603   0.00000   0.00000   0.00000
  27        2S          0.01997  -0.01261   0.00001   0.00000   0.00000
  28        2PX         0.00000   0.00000   0.03077   0.00000   0.00000
  29        2PY        -0.01402   0.02202   0.00000   0.00000   0.00000
  30        2PZ         0.00000   0.00000   0.00000  -0.00001   0.02449
  31        3S          0.01965  -0.01094   0.00001   0.00000   0.00000
  32        3PX         0.00000   0.00000   0.01990   0.00000   0.00000
  33        3PY        -0.00594   0.00892   0.00000   0.00000   0.00000
  34        3PZ         0.00000   0.00000   0.00000   0.00000   0.01360
  35        4XX        -0.00062   0.00038   0.00000   0.00000   0.00000
  36        4YY        -0.00015  -0.00020   0.00000   0.00000   0.00000
  37        4ZZ        -0.00076   0.00092   0.00000   0.00000   0.00000
  38        4XY         0.00000   0.00000  -0.00110   0.00000   0.00000
  39        4XZ         0.00000   0.00000   0.00000   0.00000   0.00000
  40        4YZ         0.00000   0.00000   0.00000   0.00000   0.00146
  41 5   H  1S          0.00204   0.00240  -0.00001   0.00000   0.01278
  42        2S         -0.00165   0.00244   0.00000   0.00000   0.00608
  43        3PX         0.00000   0.00000   0.00082   0.00000   0.00000
  44        3PY        -0.00062   0.00051   0.00000   0.00000  -0.00050
  45        3PZ        -0.00047   0.00002   0.00000   0.00000  -0.00035
  46 6   H  1S          0.00204   0.00240  -0.00001   0.00000  -0.01278
  47        2S         -0.00165   0.00244   0.00000   0.00000  -0.00608
  48        3PX         0.00000   0.00000   0.00082   0.00000   0.00000
  49        3PY        -0.00062   0.00051   0.00000   0.00000   0.00050
  50        3PZ         0.00047  -0.00002   0.00000   0.00000  -0.00035
                          16        17        18        19        20
  16 2   H  1S          0.21128
  17        2S          0.10495   0.05651
  18        3PX         0.00000   0.00000   0.00009
  19        3PY         0.00586   0.00265   0.00000   0.00023
  20        3PZ        -0.00870  -0.00368   0.00000  -0.00025   0.00047
  21 3   H  1S         -0.03756  -0.03753   0.00000  -0.00238  -0.00277
  22        2S         -0.03753  -0.02626   0.00000  -0.00199  -0.00038
  23        3PX         0.00000   0.00000   0.00009   0.00000   0.00000
  24        3PY        -0.00238  -0.00199   0.00000  -0.00004  -0.00005
  25        3PZ         0.00277   0.00038   0.00000   0.00005  -0.00032
  26 4   N  1S          0.01060   0.00767   0.00000  -0.00099  -0.00009
  27        2S         -0.02704  -0.01795   0.00000   0.00167   0.00061
  28        2PX         0.00001   0.00000   0.00697   0.00000   0.00000
  29        2PY         0.03840   0.04546   0.00000  -0.00409   0.00022
  30        2PZ        -0.03003  -0.03489   0.00000   0.00009  -0.00062
  31        3S         -0.03973  -0.01902   0.00000   0.00079   0.00180
  32        3PX         0.00001   0.00001   0.00451   0.00000   0.00000
  33        3PY         0.01975   0.01963   0.00000  -0.00151  -0.00023
  34        3PZ        -0.02920  -0.02572   0.00000  -0.00042   0.00001
  35        4XX        -0.00023   0.00017   0.00000  -0.00008   0.00006
  36        4YY         0.00388   0.00073   0.00000   0.00020  -0.00032
  37        4ZZ         0.00170   0.00176   0.00000  -0.00016  -0.00001
  38        4XY         0.00000   0.00000  -0.00025   0.00000   0.00000
  39        4XZ         0.00001   0.00001   0.00000   0.00000   0.00000
  40        4YZ        -0.01201  -0.00725   0.00000  -0.00037   0.00026
  41 5   H  1S         -0.02741  -0.01839   0.00000  -0.00114   0.00026
  42        2S         -0.01920  -0.01250   0.00000  -0.00103   0.00015
  43        3PX         0.00000   0.00000   0.00019   0.00000   0.00000
  44        3PY         0.00130   0.00131   0.00000  -0.00009  -0.00001
  45        3PZ         0.00033   0.00005   0.00000   0.00001  -0.00001
  46 6   H  1S          0.03582   0.03416   0.00000  -0.00005  -0.00001
  47        2S          0.03580   0.02511   0.00000   0.00041  -0.00070
  48        3PX         0.00000   0.00000   0.00019   0.00000   0.00000
  49        3PY         0.00160   0.00066   0.00000  -0.00003  -0.00008
  50        3PZ        -0.00035   0.00051   0.00000  -0.00004   0.00006
                          21        22        23        24        25
  21 3   H  1S          0.21128
  22        2S          0.10495   0.05651
  23        3PX         0.00000   0.00000   0.00009
  24        3PY         0.00586   0.00265   0.00000   0.00023
  25        3PZ         0.00870   0.00368   0.00000   0.00025   0.00047
  26 4   N  1S          0.01060   0.00767   0.00000  -0.00099   0.00009
  27        2S         -0.02704  -0.01795   0.00000   0.00167  -0.00061
  28        2PX         0.00001   0.00000   0.00697   0.00000   0.00000
  29        2PY         0.03840   0.04546   0.00000  -0.00409  -0.00022
  30        2PZ         0.03003   0.03489   0.00000  -0.00009  -0.00062
  31        3S         -0.03973  -0.01902   0.00000   0.00079  -0.00180
  32        3PX         0.00001   0.00001   0.00451   0.00000   0.00000
  33        3PY         0.01975   0.01963   0.00000  -0.00151   0.00023
  34        3PZ         0.02920   0.02572   0.00000   0.00042   0.00001
  35        4XX        -0.00023   0.00017   0.00000  -0.00008  -0.00006
  36        4YY         0.00388   0.00073   0.00000   0.00020   0.00032
  37        4ZZ         0.00170   0.00176   0.00000  -0.00016   0.00001
  38        4XY         0.00000   0.00000  -0.00025   0.00000   0.00000
  39        4XZ        -0.00001  -0.00001   0.00000   0.00000   0.00000
  40        4YZ         0.01201   0.00725   0.00000   0.00037   0.00026
  41 5   H  1S          0.03582   0.03416   0.00000  -0.00005   0.00001
  42        2S          0.03580   0.02511   0.00000   0.00041   0.00070
  43        3PX         0.00000   0.00000   0.00019   0.00000   0.00000
  44        3PY         0.00160   0.00066   0.00000  -0.00003   0.00008
  45        3PZ         0.00035  -0.00051   0.00000   0.00004   0.00006
  46 6   H  1S         -0.02741  -0.01839   0.00000  -0.00114  -0.00026
  47        2S         -0.01920  -0.01250   0.00000  -0.00103  -0.00015
  48        3PX         0.00000   0.00000   0.00019   0.00000   0.00000
  49        3PY         0.00130   0.00131   0.00000  -0.00009   0.00001
  50        3PZ        -0.00033  -0.00005   0.00000  -0.00001  -0.00001
                          26        27        28        29        30
  26 4   N  1S          2.05930
  27        2S         -0.11947   0.40326
  28        2PX        -0.00003   0.00010   0.55870
  29        2PY        -0.00356   0.00540   0.00002   0.52297
  30        2PZ         0.00000   0.00000   0.00000   0.00000   0.53806
  31        3S         -0.17891   0.40116   0.00014   0.06132   0.00000
  32        3PX        -0.00003   0.00008   0.36129   0.00005   0.00000
  33        3PY        -0.00084   0.00089   0.00008   0.20686   0.00000
  34        3PZ         0.00000   0.00000   0.00000   0.00000   0.27690
  35        4XX        -0.00983  -0.01529  -0.00002  -0.00109   0.00000
  36        4YY        -0.01517  -0.00370   0.00002  -0.01165   0.00000
  37        4ZZ        -0.01384  -0.00687   0.00001   0.01672   0.00000
  38        4XY         0.00001  -0.00001  -0.01993  -0.00004   0.00000
  39        4XZ         0.00000   0.00000   0.00000   0.00000  -0.00005
  40        4YZ         0.00000   0.00000   0.00000   0.00000   0.01416
  41 5   H  1S         -0.05785   0.12401  -0.00018   0.14863   0.25266
  42        2S         -0.00329   0.00418  -0.00005   0.05654   0.09843
  43        3PX        -0.00001   0.00002   0.01484   0.00001   0.00002
  44        3PY         0.00430  -0.00930   0.00002   0.00445  -0.01228
  45        3PZ         0.00710  -0.01521   0.00002  -0.01113  -0.00857
  46 6   H  1S         -0.05785   0.12401  -0.00018   0.14863  -0.25266
  47        2S         -0.00329   0.00418  -0.00005   0.05654  -0.09843
  48        3PX        -0.00001   0.00002   0.01484   0.00001  -0.00002
  49        3PY         0.00430  -0.00930   0.00002   0.00445   0.01228
  50        3PZ        -0.00710   0.01521  -0.00002   0.01113  -0.00857
                          31        32        33        34        35
  31        3S          0.41029
  32        3PX         0.00012   0.23363
  33        3PY         0.02210   0.00007   0.08207
  34        3PZ         0.00000   0.00000   0.00000   0.14404
  35        4XX        -0.01464  -0.00001  -0.00045   0.00000   0.00070
  36        4YY        -0.00537   0.00001  -0.00436   0.00000   0.00021
  37        4ZZ        -0.00457   0.00001   0.00663   0.00000   0.00034
  38        4XY        -0.00002  -0.01289  -0.00002   0.00000   0.00000
  39        4XZ         0.00000   0.00000   0.00000  -0.00003   0.00000
  40        4YZ         0.00000   0.00000   0.00000   0.00855   0.00000
  41 5   H  1S          0.13936  -0.00010   0.05850   0.13199  -0.00483
  42        2S          0.00936  -0.00003   0.02259   0.05312  -0.00030
  43        3PX         0.00002   0.00960   0.00001   0.00001   0.00000
  44        3PY        -0.00891   0.00001   0.00181  -0.00623   0.00033
  45        3PZ        -0.01640   0.00001  -0.00435  -0.00435   0.00058
  46 6   H  1S          0.13936  -0.00010   0.05850  -0.13199  -0.00483
  47        2S          0.00936  -0.00003   0.02259  -0.05312  -0.00030
  48        3PX         0.00002   0.00960   0.00001  -0.00001   0.00000
  49        3PY        -0.00891   0.00001   0.00181   0.00623   0.00033
  50        3PZ         0.01640  -0.00001   0.00435  -0.00435  -0.00058
                          36        37        38        39        40
  36        4YY         0.00067
  37        4ZZ        -0.00018   0.00078
  38        4XY         0.00000   0.00000   0.00071
  39        4XZ         0.00000   0.00000   0.00000   0.00000
  40        4YZ         0.00000   0.00000   0.00000   0.00000   0.00140
  41 5   H  1S         -0.00414   0.00277  -0.00001  -0.00002   0.00825
  42        2S         -0.00104   0.00176   0.00000  -0.00001   0.00460
  43        3PX         0.00000   0.00000  -0.00053   0.00000   0.00000
  44        3PY         0.00000   0.00029   0.00000   0.00000  -0.00025
  45        3PZ         0.00037  -0.00011   0.00000   0.00000  -0.00018
  46 6   H  1S         -0.00414   0.00277  -0.00001   0.00002  -0.00825
  47        2S         -0.00104   0.00176   0.00000   0.00001  -0.00460
  48        3PX         0.00000   0.00000  -0.00053   0.00000   0.00000
  49        3PY         0.00000   0.00029   0.00000   0.00000   0.00025
  50        3PZ        -0.00037   0.00011   0.00000   0.00000  -0.00018
                          41        42        43        44        45
  41 5   H  1S          0.20083
  42        2S          0.06663   0.02833
  43        3PX         0.00001   0.00000   0.00039
  44        3PY        -0.00723  -0.00168   0.00000   0.00054
  45        3PZ        -0.01172  -0.00281   0.00000   0.00046   0.00094
  46 6   H  1S         -0.04145  -0.03209   0.00000   0.00407  -0.00382
  47        2S         -0.03209  -0.01557   0.00000   0.00252   0.00015
  48        3PX         0.00000   0.00000   0.00039   0.00000   0.00000
  49        3PY         0.00407   0.00252   0.00000  -0.00003   0.00006
  50        3PZ         0.00382  -0.00015   0.00000  -0.00006  -0.00067
                          46        47        48        49        50
  46 6   H  1S          0.20083
  47        2S          0.06663   0.02833
  48        3PX         0.00001   0.00000   0.00039
  49        3PY        -0.00723  -0.00168   0.00000   0.00054
  50        3PZ         0.01172   0.00281   0.00000  -0.00046   0.00094
    Full Mulliken population analysis:
                           1         2         3         4         5
   1 1   C  1S          2.05416
   2        2S         -0.01699   0.36872
   3        2PX         0.00000   0.00000   0.22538
   4        2PY         0.00000   0.00000   0.00000   0.42245
   5        2PZ         0.00000   0.00000   0.00000   0.00000   0.49015
   6        3S         -0.02685   0.21676   0.00000   0.00000   0.00000
   7        3PX         0.00000   0.00000   0.06112   0.00000   0.00000
   8        3PY         0.00000   0.00000   0.00000   0.04657   0.00000
   9        3PZ         0.00000   0.00000   0.00000   0.00000   0.11930
  10        4XX        -0.00086  -0.01389   0.00000   0.00000   0.00000
  11        4YY        -0.00125  -0.00296   0.00000   0.00000   0.00000
  12        4ZZ        -0.00135  -0.00309   0.00000   0.00000   0.00000
  13        4XY         0.00000   0.00000   0.00000   0.00000   0.00000
  14        4XZ         0.00000   0.00000   0.00000   0.00000   0.00000
  15        4YZ         0.00000   0.00000   0.00000   0.00000   0.00000
  16 2   H  1S         -0.00221   0.03765   0.00000   0.02434   0.07861
  17        2S         -0.00125   0.01726   0.00000   0.00951   0.03167
  18        3PX         0.00000   0.00000   0.00068   0.00000   0.00000
  19        3PY        -0.00007   0.00084   0.00000   0.00003   0.00183
  20        3PZ        -0.00022   0.00273   0.00000   0.00149   0.00142
  21 3   H  1S         -0.00221   0.03765   0.00000   0.02434   0.07861
  22        2S         -0.00125   0.01726   0.00000   0.00951   0.03167
  23        3PX         0.00000   0.00000   0.00068   0.00000   0.00000
  24        3PY        -0.00007   0.00084   0.00000   0.00003   0.00183
  25        3PZ        -0.00022   0.00273   0.00000   0.00149   0.00142
  26 4   N  1S          0.00000  -0.00058   0.00000  -0.00334   0.00000
  27        2S         -0.00037   0.01019   0.00000   0.04769   0.00000
  28        2PX         0.00000   0.00000   0.03503   0.00000   0.00000
  29        2PY        -0.00232   0.04309   0.00000   0.10712   0.00000
  30        2PZ         0.00000   0.00000   0.00000   0.00000   0.00175
  31        3S         -0.00034   0.00185   0.00000   0.04560   0.00000
  32        3PX         0.00000   0.00000   0.06063   0.00000   0.00000
  33        3PY        -0.00424   0.03734   0.00000   0.03185   0.00000
  34        3PZ         0.00000   0.00000   0.00000   0.00000  -0.00485
  35        4XX         0.00000  -0.00045   0.00000  -0.00074   0.00000
  36        4YY        -0.00053   0.00455   0.00000   0.00057   0.00000
  37        4ZZ         0.00000  -0.00078   0.00000  -0.00235   0.00000
  38        4XY         0.00000   0.00000   0.00276   0.00000   0.00000
  39        4XZ         0.00000   0.00000   0.00000   0.00000   0.00000
  40        4YZ         0.00000   0.00000   0.00000   0.00000   0.00478
  41 5   H  1S          0.00000  -0.00042   0.00000  -0.00117  -0.00031
  42        2S          0.00009  -0.00152   0.00000  -0.00501  -0.00235
  43        3PX         0.00000   0.00000   0.00003   0.00000   0.00000
  44        3PY         0.00000   0.00003   0.00000   0.00019   0.00003
  45        3PZ         0.00000  -0.00001   0.00000  -0.00001   0.00000
  46 6   H  1S          0.00000  -0.00042   0.00000  -0.00117  -0.00031
  47        2S          0.00009  -0.00152   0.00000  -0.00501  -0.00235
  48        3PX         0.00000   0.00000   0.00003   0.00000   0.00000
  49        3PY         0.00000   0.00003   0.00000   0.00019   0.00003
  50        3PZ         0.00000  -0.00001   0.00000  -0.00001   0.00000
                           6         7         8         9        10
   6        3S          0.23814
   7        3PX         0.00000   0.05106
   8        3PY         0.00000   0.00000   0.02066
   9        3PZ         0.00000   0.00000   0.00000   0.09189
  10        4XX        -0.00725   0.00000   0.00000   0.00000   0.00124
  11        4YY        -0.00683   0.00000   0.00000   0.00000  -0.00002
  12        4ZZ         0.00311   0.00000   0.00000   0.00000   0.00024
  13        4XY         0.00000   0.00000   0.00000   0.00000   0.00000
  14        4XZ         0.00000   0.00000   0.00000   0.00000   0.00000
  15        4YZ         0.00000   0.00000   0.00000   0.00000   0.00000
  16 2   H  1S          0.05113   0.00000   0.00944   0.04783  -0.00062
  17        2S          0.03214   0.00000   0.00495   0.03100  -0.00032
  18        3PX         0.00000   0.00043   0.00000   0.00000   0.00000
  19        3PY         0.00032   0.00000  -0.00005   0.00039  -0.00002
  20        3PZ         0.00143   0.00000   0.00024  -0.00004  -0.00005
  21 3   H  1S          0.05113   0.00000   0.00944   0.04783  -0.00062
  22        2S          0.03214   0.00000   0.00495   0.03100  -0.00032
  23        3PX         0.00000   0.00043   0.00000   0.00000   0.00000
  24        3PY         0.00032   0.00000  -0.00005   0.00039  -0.00002
  25        3PZ         0.00143   0.00000   0.00024  -0.00004  -0.00005
  26 4   N  1S          0.00117   0.00000  -0.00006   0.00000   0.00000
  27        2S         -0.01721   0.00000   0.00082   0.00000  -0.00049
  28        2PX         0.00000   0.03213   0.00000   0.00000   0.00000
  29        2PY         0.01085   0.00000   0.00800   0.00000  -0.00133
  30        2PZ         0.00000   0.00000   0.00000  -0.00546   0.00000
  31        3S         -0.05048   0.00000   0.00074   0.00000  -0.00112
  32        3PX         0.00000   0.06209   0.00000   0.00000   0.00000
  33        3PY         0.00857   0.00000   0.00153   0.00000  -0.00222
  34        3PZ         0.00000   0.00000   0.00000  -0.01511   0.00000
  35        4XX         0.00005   0.00000   0.00023   0.00000   0.00003
  36        4YY         0.00345   0.00000  -0.00013   0.00000  -0.00011
  37        4ZZ        -0.00025   0.00000  -0.00098   0.00000   0.00002
  38        4XY         0.00000   0.00101   0.00000   0.00000   0.00000
  39        4XZ         0.00000   0.00000   0.00000   0.00000   0.00000
  40        4YZ         0.00000   0.00000   0.00000   0.00174   0.00000
  41 5   H  1S         -0.00282   0.00000  -0.00395  -0.00290   0.00000
  42        2S          0.00017   0.00000  -0.00367  -0.00482   0.00009
  43        3PX         0.00000   0.00021   0.00000   0.00000   0.00000
  44        3PY        -0.00010   0.00000   0.00009   0.00000   0.00000
  45        3PZ        -0.00011   0.00000  -0.00009   0.00000   0.00000
  46 6   H  1S         -0.00282   0.00000  -0.00395  -0.00290   0.00000
  47        2S          0.00017   0.00000  -0.00367  -0.00482   0.00009
  48        3PX         0.00000   0.00021   0.00000   0.00000   0.00000
  49        3PY        -0.00010   0.00000   0.00009   0.00000   0.00000
  50        3PZ        -0.00011   0.00000  -0.00009   0.00000   0.00000
                          11        12        13        14        15
  11        4YY         0.00197
  12        4ZZ        -0.00044   0.00165
  13        4XY         0.00000   0.00000   0.00169
  14        4XZ         0.00000   0.00000   0.00000   0.00000
  15        4YZ         0.00000   0.00000   0.00000   0.00000   0.00177
  16 2   H  1S         -0.00169   0.00217   0.00000   0.00000   0.00261
  17        2S         -0.00160   0.00150   0.00000   0.00000   0.00040
  18        3PX         0.00000   0.00000  -0.00006   0.00000   0.00000
  19        3PY         0.00000  -0.00004   0.00000   0.00000   0.00000
  20        3PZ        -0.00011   0.00006   0.00000   0.00000   0.00005
  21 3   H  1S         -0.00169   0.00217   0.00000   0.00000   0.00261
  22        2S         -0.00160   0.00150   0.00000   0.00000   0.00040
  23        3PX         0.00000   0.00000  -0.00006   0.00000   0.00000
  24        3PY         0.00000  -0.00004   0.00000   0.00000   0.00000
  25        3PZ        -0.00011   0.00006   0.00000   0.00000   0.00005
  26 4   N  1S         -0.00052   0.00001   0.00000   0.00000   0.00000
  27        2S          0.00680  -0.00084   0.00000   0.00000   0.00000
  28        2PX         0.00000   0.00000   0.00548   0.00000   0.00000
  29        2PY         0.00552  -0.00216   0.00000   0.00000   0.00000
  30        2PZ         0.00000   0.00000   0.00000   0.00000   0.00436
  31        3S          0.00752  -0.00276   0.00000   0.00000   0.00000
  32        3PX         0.00000   0.00000   0.00405   0.00000   0.00000
  33        3PY         0.00260  -0.00395   0.00000   0.00000   0.00000
  34        3PZ         0.00000   0.00000   0.00000   0.00000   0.00277
  35        4XX        -0.00011   0.00001   0.00000   0.00000   0.00000
  36        4YY        -0.00008  -0.00004   0.00000   0.00000   0.00000
  37        4ZZ        -0.00014   0.00009   0.00000   0.00000   0.00000
  38        4XY         0.00000   0.00000   0.00039   0.00000   0.00000
  39        4XZ         0.00000   0.00000   0.00000   0.00000   0.00000
  40        4YZ         0.00000   0.00000   0.00000   0.00000  -0.00052
  41 5   H  1S          0.00005   0.00002   0.00000   0.00000   0.00022
  42        2S         -0.00024   0.00025   0.00000   0.00000   0.00029
  43        3PX         0.00000   0.00000   0.00000   0.00000   0.00000
  44        3PY         0.00001   0.00000   0.00000   0.00000   0.00001
  45        3PZ         0.00001   0.00000   0.00000   0.00000   0.00000
  46 6   H  1S          0.00005   0.00002   0.00000   0.00000   0.00022
[...]
   1     2     1         -0.00013   0.00016   0.00007  -0.00019   0.00021
   2     2     1          0.60641  -0.20457  -0.14096   0.34757  -0.34287
   3     2     1         -0.29417   0.22818   0.25974   0.61373  -0.61355
   1     3     1         -0.00013   0.00016   0.00007  -0.00019  -0.00021
   2     3     1          0.60641  -0.20457  -0.14096   0.34757   0.34287
   3     3     1          0.29417  -0.22818  -0.25974  -0.61373  -0.61355
   1     4     7          0.00003  -0.00003   0.00007   0.00000   0.00000
   2     4     7         -0.10755  -0.02855  -0.24085   0.00818   0.00000
   3     4     7          0.00000   0.00000   0.00000   0.00000  -0.00466
   1     5     1         -0.00001   0.00041  -0.00055  -0.00001   0.00003
   2     5     1         -0.19240  -0.54782   0.41818   0.00709  -0.00543
   3     5     1         -0.03692  -0.30466   0.42578  -0.00751   0.02137
   1     6     1         -0.00001   0.00041  -0.00055  -0.00001  -0.00003
   2     6     1         -0.19240  -0.54782   0.41818   0.00709   0.00543
   3     6     1          0.03692   0.30466  -0.42578   0.00751   0.02137
                          11        12
                          A'        A"
       Frequencies ---  3484.9666 3591.4879
    Reduced masses ---     1.0521    1.1069
   Force constants ---     7.5287    8.4122
    IR Intensities ---   153.1003  187.5337
 Coord Atom Element:
   1     1     6          0.00000   0.00000
   2     1     6         -0.00608   0.00000
   3     1     6          0.00000   0.00233
   1     2     1          0.00000  -0.00002
   2     2     1         -0.00242  -0.01299
   3     2     1          0.00352  -0.01915
   1     3     1          0.00000   0.00002
   2     3     1         -0.00242   0.01299
   3     3     1         -0.00352  -0.01915
   1     4     7         -0.00007   0.00000
   2     4     7          0.05813   0.00000
   3     4     7          0.00000   0.08729
   1     5     1          0.00052  -0.00055
   2     5     1         -0.36518   0.36640
   3     5     1          0.60409  -0.60117
   1     6     1          0.00052   0.00055
   2     6     1         -0.36518  -0.36640
   3     6     1         -0.60409  -0.60117
 Harmonic frequencies (cm**-1), IR intensities (KM/Mole), Raman scattering
 activities (A**4/AMU), depolarization ratios for plane and unpolarized
 incident light, reduced masses (AMU), force constants (mDyne/A),
 and normal coordinates:
                     1                      2                      3
                    A'                     A"                     A"
 Frequencies --   936.0668               967.2489              1073.0817
 Red. masses --     1.2806                 1.0379                 1.0078
 Frc consts  --     0.6611                 0.5721                 0.6838
 IR Inten    --   243.6832                10.2384                 0.0000
  Atom  AN      X      Y      Z        X      Y      Z        X      Y      Z
     1   6     0.04   0.00   0.00     0.00   0.00  -0.04     0.00   0.00   0.00
     2   1     0.04   0.00   0.00     0.00  -0.44   0.22     0.48   0.00   0.00
     3   1     0.04   0.00   0.00     0.00   0.44   0.22    -0.48   0.00   0.00
     4   7    -0.14   0.00   0.00     0.00   0.00  -0.03     0.00   0.00   0.00
     5   1     0.70   0.00   0.00     0.00   0.44   0.24    -0.52   0.00   0.00
     6   1     0.70   0.00   0.00     0.00  -0.44   0.24     0.52   0.00   0.00
                     4                      5                      6
                    A'                     A"                     A'
 Frequencies --  1167.4183              1349.5722              1460.3866
 Red. masses --     1.3088                 1.4812                 1.1925
 Frc consts  --     1.0509                 1.5895                 1.4985
 IR Inten    --    31.9183                 9.7975                22.3418
  Atom  AN      X      Y      Z        X      Y      Z        X      Y      Z
     1   6     0.16   0.00   0.00     0.00   0.00   0.15     0.00   0.06   0.00
     2   1    -0.70   0.00   0.00     0.00   0.48  -0.11     0.00   0.61  -0.29
     3   1    -0.70   0.00   0.00     0.00  -0.48  -0.11     0.00   0.61   0.29
     4   7    -0.03   0.00   0.00     0.00   0.00  -0.13     0.00  -0.11   0.00
     5   1    -0.06   0.00   0.00     0.00   0.47   0.15     0.00  -0.19  -0.04
     6   1    -0.06   0.00   0.00     0.00  -0.47   0.15     0.00  -0.19   0.04
                     7                      8                      9
                    A'                     A'                     A'
 Frequencies --  1597.3982              1775.8168              3163.3268
 Red. masses --     1.2987                 2.3661                 1.0612
 Frc consts  --     1.9525                 4.3962                 6.2566
 IR Inten    --    30.6950                70.1653                12.2874
  Atom  AN      X      Y      Z        X      Y      Z        X      Y      Z
     1   6     0.00   0.16   0.00     0.00   0.23   0.00     0.00  -0.07   0.00
     2   1     0.00  -0.20   0.23     0.00  -0.14   0.26     0.00   0.35   0.61
     3   1     0.00  -0.20  -0.23     0.00  -0.14  -0.26     0.00   0.35  -0.61
     4   7     0.00  -0.03   0.00     0.00  -0.24   0.00     0.00   0.01   0.00
     5   1     0.00  -0.55  -0.30     0.00   0.42   0.43     0.00   0.01  -0.01
     6   1     0.00  -0.55   0.30     0.00   0.42  -0.43     0.00   0.01   0.01
                    10                     11                     12
                    A"                     A'                     A"
 Frequencies --  3283.9455              3484.9666              3591.4879
 Red. masses --     1.1291                 1.0521                 1.1069
 Frc consts  --     7.1740                 7.5287                 8.4122
 IR Inten    --    21.2195               153.1003               187.5337
  Atom  AN      X      Y      Z        X      Y      Z        X      Y      Z
     1   6     0.00   0.00   0.10     0.00  -0.01   0.00     0.00   0.00   0.00
     2   1     0.00  -0.34  -0.61     0.00   0.00   0.00     0.00  -0.01  -0.02
     3   1     0.00   0.34  -0.61     0.00   0.00   0.00     0.00   0.01  -0.02
     4   7     0.00   0.00   0.00     0.00   0.06   0.00     0.00   0.00   0.09
     5   1     0.00  -0.01   0.02     0.00  -0.37   0.60     0.00   0.37  -0.60
     6   1     0.00   0.01   0.02     0.00  -0.37  -0.60     0.00  -0.37  -0.60

 -------------------
 - Thermochemistry -
 -------------------
 Temperature   298.150 Kelvin.  Pressure   1.00000 Atm.
 Atom     1 has atomic number  6 and mass  12.00000
 Atom     2 has atomic number  1 and mass   1.00783
 Atom     3 has atomic number  1 and mass   1.00783
 Atom     4 has atomic number  7 and mass  14.00307
 Atom     5 has atomic number  1 and mass   1.00783
 Atom     6 has atomic number  1 and mass   1.00783
 Molecular mass:    30.03437 amu.
 Principal axes and moments of inertia in atomic units:
                           1         2         3
     Eigenvalues --    11.84344  57.72143  69.56486
           X           -0.00017   0.00000   1.00000
           Y            1.00000   0.00000   0.00017
           Z            0.00000   1.00000   0.00000
 This molecule is an asymmetric top.
 Rotational symmetry number  1.
 Rotational temperatures (Kelvin)      7.31323     1.50055     1.24508
 Rotational constants (GHZ):         152.38318    31.26640    25.94329
 Zero-point vibrational energy     142659.0 (Joules/Mol)
                                   34.09631 (Kcal/Mol)
 Vibrational temperatures:   1346.79  1391.65  1543.92  1679.65  1941.73
          (Kelvin)           2101.17  2298.30  2555.00  4551.32  4724.86
                             5014.08  5167.34
 
 Zero-point correction=                           0.054336 (Hartree/Particle)
 Thermal correction to Energy=                    0.057324
 Thermal correction to Enthalpy=                  0.058268
 Thermal correction to Gibbs Free Energy=         0.032122
 Sum of electronic and zero-point Energies=            -94.929297
 Sum of electronic and thermal Energies=               -94.926309
 Sum of electronic and thermal Enthalpies=             -94.925364
 Sum of electronic and thermal Free Energies=          -94.951510
 
                     E (Thermal)             CV                S
                      KCal/Mol        Cal/Mol-Kelvin    Cal/Mol-Kelvin
 Total                   35.971              7.652             55.028
 Electronic               0.000              0.000              0.000
 Translational            0.889              2.981             36.133
 Rotational               0.889              2.981             18.504
 Vibrational             34.194              1.691              0.392
                       Q            Log10(Q)             Ln(Q)
 Total Bot       0.167792D-14        -14.775228        -34.021220
 Total V=0       0.165010D+11         10.217511         23.526690
 Vib (Bot)       0.105061D-24        -24.978560        -57.515260
 Vib (V=0)       0.103319D+01          0.014180          0.032650
 Electronic      0.100000D+01          0.000000          0.000000
 Translational   0.646968D+07          6.810883         15.682638
 Rotational      0.246859D+04          3.392449          7.811402
 ***** Axes restored to original set *****
 -------------------------------------------------------------------
 Center     Atomic                   Forces (Hartrees/Bohr)
 Number     Number              X              Y              Z
 -------------------------------------------------------------------
      1        6          -0.000349076    0.000000000   -0.000081470
      2        1          -0.000004632    0.000012758    0.000017355
      3        1          -0.000004632   -0.000012758    0.000017355
      4        7           0.000842618    0.000000000    0.000122104
      5        1          -0.000242140    0.000050133   -0.000037672
      6        1          -0.000242140   -0.000050133   -0.000037672
 -------------------------------------------------------------------
 Cartesian Forces:  Max     0.000842618 RMS     0.000233274

 GradGradGradGradGradGradGradGradGradGradGradGradGradGradGradGradGradGrad
 Berny optimization.
 Internal  Forces:  Max     0.000358351 RMS     0.000134531
 Search for a local minimum.
 Step number   1 out of a maximum of    2
 All quantities printed in internal units (Hartrees-Bohrs-Radians)
 Second derivative matrix not updated -- analytic derivatives used.
 The second derivative matrix:
                          R1        R2        R3        R4        R5
           R1           0.36500
           R2          -0.00021   0.36500
           R3           0.00401   0.00401   0.74227
           R4           0.00062  -0.00151   0.00684   0.44541
           R5          -0.00151   0.00062   0.00684  -0.00035   0.44541
           A1           0.00372   0.00372  -0.03019   0.00060   0.00060
           A2           0.00240  -0.00612   0.01510  -0.00353   0.00294
           A3          -0.00612   0.00240   0.01510   0.00294  -0.00353
           A4          -0.00186   0.00184   0.01287   0.00039  -0.00590
           A5           0.00184  -0.00186   0.01287  -0.00590   0.00039
           A6           0.00002   0.00002  -0.02574   0.00551   0.00551
           D1           0.00001   0.00000   0.00006   0.00001   0.00001
           D2           0.00000   0.00000  -0.00003   0.00000  -0.00001
           D3           0.00000   0.00000   0.00003   0.00001   0.00000
           D4           0.00000  -0.00001  -0.00006  -0.00001  -0.00001
                          A1        A2        A3        A4        A5
           A1           0.07646
           A2          -0.03823   0.09894
           A3          -0.03823  -0.06071   0.09894
           A4          -0.00192  -0.00665   0.00858   0.09257
           A5          -0.00192   0.00858  -0.00665  -0.05189   0.09257
           A6           0.00385  -0.00192  -0.00192  -0.04067  -0.04067
           D1          -0.00001   0.00002   0.00001   0.00003   0.00001
           D2          -0.00001   0.00002   0.00001  -0.00001  -0.00003
           D3           0.00001  -0.00001  -0.00002   0.00003   0.00001
           D4           0.00001  -0.00001  -0.00002  -0.00001  -0.00003
                          A6        D1        D2        D3        D4
           A6           0.08135
           D1          -0.00002   0.02877
           D2           0.00001   0.01469   0.03562
           D3          -0.00001   0.00134  -0.01960   0.03562
           D4           0.00002  -0.01275   0.00134   0.01469   0.02877
     Eigenvalues ---    0.03204   0.03337   0.06338   0.11074   0.12168
     Eigenvalues ---    0.13502   0.16836   0.36489   0.36562   0.44511
     Eigenvalues ---    0.44609   0.746411000.000001000.000001000.00000
 Angle between quadratic step and forces=  45.97 degrees.
 Linear search not attempted -- first point.
 Iteration  1 RMS(Cart)=  0.00057337 RMS(Int)=  0.00000070
 Iteration  2 RMS(Cart)=  0.00000061 RMS(Int)=  0.00000022
 ClnCor:  largest displacement from symmetrization is 5.66D-10 for atom     6.
 Variable       Old X    -DE/DX   Delta X   Delta X   Delta X     New X
                                 (Linear)    (Quad)   (Total)
    R1        2.05545   0.00001   0.00000   0.00003   0.00003   2.05549
    R2        2.05545   0.00001   0.00000   0.00003   0.00003   2.05549
    R3        2.41617  -0.00036   0.00000  -0.00059  -0.00059   2.41557
    R4        1.92890   0.00017   0.00000   0.00043   0.00043   1.92932
    R5        1.92890   0.00017   0.00000   0.00043   0.00043   1.92932
    A1        2.10340   0.00001   0.00000   0.00006   0.00006   2.10347
    A2        2.08989  -0.00001   0.00000  -0.00003  -0.00003   2.08986
    A3        2.08989  -0.00001   0.00000  -0.00003  -0.00003   2.08986
    A4        2.12486   0.00012   0.00000   0.00103   0.00103   2.12589
    A5        2.12486   0.00012   0.00000   0.00103   0.00103   2.12589
    A6        2.03346  -0.00023   0.00000  -0.00206  -0.00206   2.03140
    D1       -0.00131   0.00005   0.00000   0.00131   0.00131   0.00000
    D2       -3.14099  -0.00002   0.00000  -0.00060  -0.00060  -3.14159
    D3        3.14099   0.00002   0.00000   0.00060   0.00060   3.14159
    D4        0.00131  -0.00005   0.00000  -0.00131  -0.00131   0.00000
         Item               Value     Threshold  Converged?
 Maximum Force            0.000358     0.000450     YES
 RMS     Force            0.000135     0.000300     YES
 Maximum Displacement     0.000965     0.001800     YES
 RMS     Displacement     0.000574     0.001200     YES
 Predicted change in Energy=-6.075186D-07
 Optimization completed.
    -- Stationary point found.
                           ----------------------------
                           !   Optimized Parameters   !
                           ! (Angstroms and Degrees)  !
 --------------------------                            --------------------------
 ! Name  Definition              Value          Derivative Info.                !
 --------------------------------------------------------------------------------
 ! R1    R(1,2)                  1.0877         -DE/DX =    0.0                 !
 ! R2    R(1,3)                  1.0877         -DE/DX =    0.0                 !
 ! R3    R(1,4)                  1.2786         -DE/DX =   -0.0004              !
 ! R4    R(4,5)                  1.0207         -DE/DX =    0.0002              !
 ! R5    R(4,6)                  1.0207         -DE/DX =    0.0002              !
 ! A1    A(2,1,3)              120.516          -DE/DX =    0.0                 !
 ! A2    A(2,1,4)              119.742          -DE/DX =    0.0                 !
 ! A3    A(3,1,4)              119.742          -DE/DX =    0.0                 !
 ! A4    A(1,4,5)              121.7457         -DE/DX =    0.0001              !
 ! A5    A(1,4,6)              121.7457         -DE/DX =    0.0001              !
 ! A6    A(5,4,6)              116.5085         -DE/DX =   -0.0002              !
 ! D1    D(2,1,4,5)             -0.0753         -DE/DX =    0.0                 !
 ! D2    D(2,1,4,6)           -179.9656         -DE/DX =    0.0                 !
 ! D3    D(3,1,4,5)            179.9656         -DE/DX =    0.0                 !
 ! D4    D(3,1,4,6)              0.0753         -DE/DX =    0.0                 !
 --------------------------------------------------------------------------------
 GradGradGradGradGradGradGradGradGradGradGradGradGradGradGradGradGradGrad

 1\1\GINC-EAM\Freq\RB3LYP\6-31G(d,p)\C1H4N1(1+)\DULIKAI\11-Dec-2013\0\\
 #N Geom=AllCheck Guess=TCheck SCRF=Check GenChk RB3LYP/6-31G(d,p) Freq
 \\Title Card Required\\1,1\C,0.676596,0.,0.000111\H,1.216199,0.944415,
 -0.000091\H,1.216199,-0.944415,-0.000091\N,-0.601984,0.,-0.000209\H,-1
 .13904,0.868018,0.000487\H,-1.13904,-0.868018,0.000487\\Version=EM64L-
 G09RevA.01\State=1-A'\HF=-94.9836325\RMSD=2.636e-09\RMSF=2.333e-04\Zer
 oPoint=0.0543359\Thermal=0.0573239\Dipole=-0.1680829,0.,0.0007772\Dipo
 leDeriv=0.6228213,0.,0.0001555,0.,0.2779709,0.,0.0000123,0.,0.2587703,
 0.1647203,0.0522612,-0.0000109,0.03479,0.1349452,-0.0000386,0.0000585,
 -0.0000198,0.1562817,0.1647203,-0.0522612,-0.0000109,-0.03479,0.134945
 2,0.0000386,0.0000585,0.0000198,0.1562817,-0.5704903,0.,-0.0001123,0.,
 -0.1968995,0.,-0.0004638,0.,-0.2901874,0.3091142,-0.0657727,-0.0000107
 ,-0.1185466,0.3245191,0.000039,0.0001672,-0.0000058,0.3594268,0.309114
 2,0.0657727,-0.0000107,0.1185466,0.3245191,-0.000039,0.0001672,0.00000
 58,0.3594268\Polar=21.6140554,0.,14.7588443,0.0014663,0.,7.2472467\PG=
 CS [SG(C1N1),X(H4)]\NImag=0\\0.95076457,0.,0.72919842,0.00001732,0.,0.
 15489523,-0.12536858,-0.11005973,0.00001820,0.13422019,-0.12674642,-0.
 29414118,0.00003401,0.13121477,0.29039725,0.00004078,0.00005243,-0.053
 18297,-0.00002311,-0.00004285,0.02944308,-0.12536858,0.11005973,0.0000
 1820,0.01226982,-0.01191893,-0.00000007,0.13422019,0.12674642,-0.29414
 118,-0.00003401,0.01191893,-0.00933277,-0.00000482,-0.13121477,0.29039
 725,0.00004078,-0.00005243,-0.05318296,-0.00000007,0.00000482,0.009326
 32,-0.00002311,0.00004285,0.02944308,-0.66394035,0.,-0.00009594,-0.018
 53961,0.00540484,-0.00001396,-0.01853961,-0.00540484,-0.00001396,1.033
 19031,0.,-0.16245352,0.,-0.03390667,0.01029697,-0.00001966,0.03390667,
 0.01029697,0.00001966,0.,0.82908658,-0.00003030,0.,-0.05721841,0.00001
 113,0.00000516,0.00973877,0.00001113,-0.00000516,0.00973877,-0.0002691
 0,0.,0.10751091,-0.01804353,0.03391669,0.00002111,0.00097832,0.0000174
 7,-0.00000529,-0.00356014,-0.00202827,0.00000164,-0.16608537,0.1517024
 3,0.00013857,0.17057071,-0.00171027,0.01076873,-0.00000211,-0.00108534
 ,0.00182523,0.00000718,-0.00191804,0.00095449,-0.00000773,0.15608101,-
 0.34361350,-0.00018837,-0.16748783,0.34335723,-0.00003429,0.00002138,0
 .00434455,-0.00000082,-0.00000334,-0.00861813,-0.00000533,-0.00000220,
 0.01329293,0.00019648,-0.00024580,-0.03488502,-0.00014178,0.00021049,0
 .02480641,-0.01804353,-0.03391669,0.00002111,-0.00356014,0.00202827,0.
 00000164,0.00097832,-0.00001747,-0.00000529,-0.16608537,-0.15170243,0.
 00013857,0.01614000,0.01612048,-0.00001426,0.17057071,0.00171027,0.010
 76873,0.00000211,0.00191804,0.00095449,0.00000773,0.00108534,0.0018252
 3,-0.00000718,-0.15608101,-0.34361350,0.00018837,-0.01612048,-0.013292
 19,0.00001946,0.16748783,0.34335723,-0.00003429,-0.00002138,0.00434455
 ,-0.00000533,0.00000220,0.01329293,-0.00000082,0.00000334,-0.00861813,
 0.00019648,0.00024580,-0.03488502,-0.00001426,-0.00001946,0.00105925,-
 0.00014178,-0.00021049,0.02480641\\0.00034908,0.,0.00008147,0.00000463
 ,-0.00001276,-0.00001736,0.00000463,0.00001276,-0.00001736,-0.00084262
 ,0.,-0.00012210,0.00024214,-0.00005013,0.00003767,0.00024214,0.0000501
 3,0.00003767\\\@


 MY GROUP MEETINGS AREN'T VERY STRUCTURED.
     -- PROF. M. S. GORDON, OCT. 5, 1984
 Job cpu time:  0 days  0 hours  0 minutes  8.5 seconds.
 File lengths (MBytes):  RWF=      5 Int=      0 D2E=      0 Chk=      1 Scr=      1
 Normal termination of Gaussian 09 at Wed Dec 11 11:11:27 2013.
