 Entering Gaussian System, Link 0=g09
 Input=h2o.gjf
 Output=h2o.log
 Initial command:
 /opt/g09_D01_em64t/g09/l1.exe "/tmp/Gau-32754.inp" -scrdir="/tmp/"
 Entering Link 1 = /opt/g09_D01_em64t/g09/l1.exe PID=     32755.
  
 Copyright (c) 1988,1990,1992,1993,1995,1998,2003,2009,2013,
            Gaussian, Inc.  All Rights Reserved.
  
 This is part of the Gaussian(R) 09 program.  It is based on
 the Gaussian(R) 03 system (copyright 2003, Gaussian, Inc.),
 the Gaussian(R) 98 system (copyright 1998, Gaussian, Inc.),
 the Gaussian(R) 94 system (copyright 1995, Gaussian, Inc.),
 the Gaussian 92(TM) system (copyright 1992, Gaussian, Inc.),
 the Gaussian 90(TM) system (copyright 1990, Gaussian, Inc.),
 the Gaussian 88(TM) system (copyright 1988, Gaussian, Inc.),
 the Gaussian 86(TM) system (copyright 1986, Carnegie Mellon
 University), and the Gaussian 82(TM) system (copyright 1983,
 Carnegie Mellon University). Gaussian is a federally registered
 trademark of Gaussian, Inc.
  
 This software contains proprietary and confidential information,
 including trade secrets, belonging to Gaussian, Inc.
  
 This software is provided under written license and may be
 used, copied, transmitted, or stored only in accord with that
 written license.
  
 The following legend is applicable only to US Government
 contracts under FAR:
  
                    RESTRICTED RIGHTS LEGEND
  
 Use, reproduction and disclosure by the US Government is
 subject to restrictions as set forth in subparagraphs (a)
 and (c) of the Commercial Computer Software - Restricted
 Rights clause in FAR 52.227-19.
  
 Gaussian, Inc.
 340 Quinnipiac St., Bldg. 40, Wallingford CT 06492
  
  
 ---------------------------------------------------------------
 Warning -- This program may not be used in any manner that
 competes with the business of Gaussian, Inc. or will provide
 assistance to any competitor of Gaussian, Inc.  The licensee
 of this program is prohibited from giving any competitor of
 Gaussian, Inc. access to this program.  By using this program,
 the user acknowledges that Gaussian, Inc. is engaged in the
 business of creating and licensing software in the field of
 computational chemistry and represents and warrants to the
 licensee that it is not a competitor of Gaussian, Inc. and that
 it will not use this program in any manner prohibited above.
 ---------------------------------------------------------------
  

 Cite this work as:
 Gaussian 09, Revision D.01,
 M. J. Frisch, G. W. Trucks, H. B. Schlegel, G. E. Scuseria, 
 M. A. Robb, J. R. Cheeseman, G. Scalmani, V. Barone, B. Mennucci, 
 G. A. Petersson, H. Nakatsuji, M. Caricato, X. Li, H. P. Hratchian, 
 A. F. Izmaylov, J. Bloino, G. Zheng, J. L. Sonnenberg, M. Hada, 
 M. Ehara, K. Toyota, R. Fukuda, J. Hasegawa, M. Ishida, T. Nakajima, 
 Y. Honda, O. Kitao, H. Nakai, T. Vreven, J. A. Montgomery, Jr., 
 J. E. Peralta, F. Ogliaro, M. Bearpark, J. J. Heyd, E. Brothers, 
 K. N. Kudin, V. N. Staroverov, T. Keith, R. Kobayashi, J. Normand, 
 K. Raghavachari, A. Rendell, J. C. Burant, S. S. Iyengar, J. Tomasi, 
 M. Cossi, N. Rega, J. M. Millam, M. Klene, J. E. Knox, J. B. Cross, 
 V. Bakken, C. Adamo, J. Jaramillo, R. Gomperts, R. E. Stratmann, 
 O. Yazyev, A. J. Austin, R. Cammi, C. Pomelli, J. W. Ochterski, 
 R. L. Martin, K. Morokuma, V. G. Zakrzewski, G. A. Voth, 
 P. Salvador, J. J. Dannenberg, S. Dapprich, A. D. Daniels, 
 O. Farkas, J. B. Foresman, J. V. Ortiz, J. Cioslowski, 
 and D. J. Fox, Gaussian, Inc., Wallingford CT, 2013.
 
 ******************************************
 Gaussian 09:  EM64L-G09RevD.01 24-Apr-2013
                 6-Jan-2015 
 ******************************************
 %chk=h2o.chk
 ----------------------------------------------------------------------
 # force td(singlet,nstates=3,root=1) oniom(b3lyp/6-31g(d):uff)=embed g
 eom=connectivity
 ----------------------------------------------------------------------
 1/18=1000020,30=1,38=1,52=12,56=1,57=2,61=3,64=2,74=500/1,3;
 2/12=2,17=6,18=5,40=1/2;
 1/18=1000020,30=1,38=1,52=12,53=3172,61=3,64=2,74=500/20;
 3/5=30,11=9,16=1,25=1,30=1,41=10200000,43=2,71=1/1;
 4/20=10,22=1,24=3,31=1/2;
 7/7=1,33=-1,44=-1/16;
 1/18=1000020,30=1,52=12,53=2032,61=3,74=500/20;
 3/5=1,6=6,7=1,11=9,16=1,25=1,30=1,71=1,74=-5/1,2,8,3;
 4//1;
 5/5=2,38=5/2;
 8/6=1,10=2,107=1,108=3/1;
 9/8=1,15=2,41=3,42=1,48=1,70=2/14;
 10/5=4/2;
 6/7=2,8=2,9=2,10=2,18=1/1;
 7/7=1,12=6,13=5,14=1,33=-1/1,2,3,16;
 1/18=1000020,30=1,52=12,53=1022,61=3,64=2,74=500/20;
 3/5=30,11=9,16=1,25=1,30=1,41=10200000,43=2,71=1/1;
 4/20=10,22=1,24=3,31=1/2;
 7/7=1,33=-1,44=-1/16;
 1/18=1000020,30=1,52=12,53=3015,61=3,64=2,74=500/20;
 7/9=1,44=-1/16;
 1/18=1000020,30=1,52=12,61=3,64=2,74=500/3;
 99//99;
 ONIOM: restoring gridpoint  3 on chk file.
 -------------------
 Title Card Required
 -------------------
 Symbolic Z-matrix:
 Charge =  1 Multiplicity = 2 for low   level calculation on real  system.
 Charge =  1 Multiplicity = 2 for high  level calculation on model system.
 Charge =  0 Multiplicity = 1 for low   level calculation on model system.
 O-O_3--0.834000      0     1.95332   1.8059    0.       H 
 H-H_-0.417000        0     2.91332   1.8059    0.       H 
 H-H_-0.417000        0     1.63286   2.71083   0.       H 
 O-O_3--0.834000      0    -0.82935   1.68461  -0.8555   L 
 H-H_-0.417000        0     0.13065   1.68461  -0.8555   L 
 H-H_-0.417000        0    -1.1498    2.58955  -0.8555   L 
 
 Include all MM classes

 MM sanity checks:
 All charges sum to:                0.00000000
 Charges of atoms sum to:           0.00000000
 Layer 1 (S) has      3 atoms and charge   0.00000000 sum=   0.00000000
 Layer 2 (R) adds     3 atoms and charge   0.00000000 sum=   0.00000000
 MMInit generated parameter data with length LenPar=         649.
 MM Charge=              0.0000 electrons
 MM Dipole moment (Debye):
    X=              2.5619    Y=              3.6251    Z=              0.0000  Tot=              4.4390
 MM Quadrupole moment (Debye-Ang):
   XX=              6.9827   YY=             15.9337   ZZ=              0.0000
   XY=              5.3468   XZ=             -1.0959   YZ=             -1.5506
 MM Traceless Quadrupole moment (Debye-Ang):
   XX=             -0.6561   YY=              8.2949   ZZ=             -7.6388
   XY=              5.3468   XZ=             -1.0959   YZ=             -1.5506
 MM Octapole moment (Debye-Ang**2):
  XXX=             27.6357  YYY=             53.3090  ZZZ=              0.0000  XYY=             12.2731
  XXY=             19.8478  XXZ=              0.0626  XZZ=              0.9375  YZZ=              1.3265
  YYZ=             -6.6276  XYZ=             -0.0632
 MM Hexadecapole moment (Debye-Ang**3):
 XXXX=            101.8126 YYYY=            160.7949 ZZZZ=              0.0000 XXXY=             55.1347
 XXXZ=              0.6460 YYYX=             30.5773 YYYZ=            -21.5629 ZZZX=             -0.8020
 ZZZY=             -1.1349 XXYY=             54.8731 XXZZ=             -0.0535 YYZZ=              5.6699
 XXYZ=             -1.9446 YYXZ=              4.5104 ZZXY=              0.0541

 GradGradGradGradGradGradGradGradGradGradGradGradGradGradGradGradGradGrad
 Berny optimization.
 Initialization pass.
                           ----------------------------
                           !    Initial Parameters    !
                           ! (Angstroms and Degrees)  !
 --------------------------                            --------------------------
 ! Name  Definition              Value          Derivative Info.                !
 --------------------------------------------------------------------------------
 ! R1    R(1,2)                  0.96           estimate D2E/DX2                !
 ! R2    R(1,3)                  0.96           estimate D2E/DX2                !
 ! A1    A(2,1,3)              109.5            estimate D2E/DX2                !
 --------------------------------------------------------------------------------
 Trust Radius=3.00D-01 FncErr=1.00D-07 GrdErr=1.00D-07
 Number of steps in this run=      2 maximum allowed number of steps=      2.
 GradGradGradGradGradGradGradGradGradGradGradGradGradGradGradGradGradGrad

                          Input orientation:                          
 ---------------------------------------------------------------------
 Center     Atomic      Atomic             Coordinates (Angstroms)
 Number     Number       Type             X           Y           Z
 ---------------------------------------------------------------------
      1          8    10081003        1.953317    1.805897    0.000000
      2          1    10011000        2.913317    1.805897    0.000000
      3          1    10011000        1.632862    2.710833    0.000000
      4          8    10081003       -0.829346    1.684610   -0.855498
      5          1    10011000        0.130654    1.684610   -0.855498
      6          1    10011000       -1.149801    2.589545   -0.855498
 ---------------------------------------------------------------------
                    Distance matrix (angstroms):
                    1          2          3          4          5
     1  O    0.000000
     2  H    0.960000   0.000000
     3  H    0.960000   1.567952   0.000000
     4  O    2.913726   3.841108   2.801336   0.000000
     5  H    2.017099   2.913726   2.010383   0.960000   0.000000
     6  H    3.312902   4.225507   2.913726   0.960000   1.567952
                    6
     6  H    0.000000
 Stoichiometry    H4O2(1+,2)
 Framework group  C1[X(H4O2)]
 Deg. of freedom    12
 Full point group                 C1      NOp   1
 Largest Abelian subgroup         C1      NOp   1
 Largest concise Abelian subgroup C1      NOp   1
                         Standard orientation:                         
 ---------------------------------------------------------------------
 Center     Atomic      Atomic             Coordinates (Angstroms)
 Number     Number       Type             X           Y           Z
 ---------------------------------------------------------------------
      1          8    10081003       -1.392899   -0.059313   -0.045865
      2          1    10011000       -2.313642   -0.124676    0.217878
      3          1    10011000       -1.108829    0.856210    0.006308
      4          8    10081003        1.520234   -0.110719   -0.017318
      5          1    10011000        0.599491   -0.176082    0.246426
      6          1    10011000        1.804304    0.804804    0.034855
 ---------------------------------------------------------------------
 Rotational constants (GHZ):    284.6367255      6.4466109      6.3259713
 ONIOM: saving gridpoint 17
 ONIOM: restoring gridpoint  3 on chk file.
 ONIOM: generating point  3 -- low level on real system.
 ChrgS2: IScale=     5     5     5     5     0     0 (distance 6..1 bonds)
 ChrgS2:  Scale=  1.00  1.00  1.00  1.00  0.00  0.00 (distance 6..1 bonds)
 Standard basis: Dummy (5D, 7F)
 There are     6 symmetry adapted cartesian basis functions of A   symmetry.
 There are     6 symmetry adapted basis functions of A   symmetry.
     6 basis functions,     6 primitive gaussians,     6 cartesian basis functions
     4 alpha electrons        3 beta electrons
       nuclear repulsion energy         8.0604424788 Hartrees.
 NAtoms=    6 NActive=    6 NUniq=    6 SFac= 1.00D+00 NAtFMM=   60 NAOKFM=F Big=F
 Integral buffers will be    131072 words long.
 Raffenetti 2 integral format.
 Two-electron integral symmetry is turned on.
 UFF calculation of energy and first derivatives.
 Energy=    2.216858518E-02 NIter=   0.
 Dipole moment=      -1.003416       1.339879       0.497895
 ***** Axes restored to original set *****
 Cartesian Forces:  Max     0.039571631 RMS     0.022642833
 ONIOM: saving gridpoint  3
 ONIOM: restoring gridpoint 17
 ONIOM: restoring gridpoint  2 on chk file.
 ONIOM: generating point  2 -- high level on model system.
 ChrgS2: IScale=     5     5     5     5     0     0 (distance 6..1 bonds)
 ChrgS2:  Scale=  1.00  1.00  1.00  1.00  0.00  0.00 (distance 6..1 bonds)
 Standard basis: 6-31G(d) (6D, 7F)
 There are    19 symmetry adapted cartesian basis functions of A   symmetry.
 There are    19 symmetry adapted basis functions of A   symmetry.
    19 basis functions,    36 primitive gaussians,    19 cartesian basis functions
     5 alpha electrons        4 beta electrons
       nuclear repulsion energy         9.0697206040 Hartrees.
 NAtoms=    6 NActive=    3 NUniq=    3 SFac= 1.00D+00 NAtFMM=   60 NAOKFM=F Big=F
 Integral buffers will be    131072 words long.
 Regular integral format.
 Two-electron integral symmetry is turned on.
 One-electron integrals computed using PRISM.
 NBasis=    19 RedAO= T EigKep=  2.24D-02  NBF=    19
 NBsUse=    19 1.00D-06 EigRej= -1.00D+00 NBFU=    19
 ExpMin= 1.61D-01 ExpMax= 5.48D+03 ExpMxC= 8.25D+02 IAcc=1 IRadAn=         1 AccDes= 0.00D+00
 Harris functional with IExCor=  402 and IRadAn=       1 diagonalized for initial guess.
 HarFok:  IExCor=  402 AccDes= 0.00D+00 IRadAn=         1 IDoV= 1 UseB2=F ITyADJ=14
 ICtDFT=  3500011 ScaDFX=  1.000000  1.000000  1.000000  1.000000
 FoFCou: FMM=F IPFlag=           0 FMFlag=      100000 FMFlg1=           0
         NFxFlg=           0 DoJE=T BraDBF=F KetDBF=T FulRan=T
         wScrn=  0.000000 ICntrl=     500 IOpCl=  0 I1Cent=   200000004 NGrid=           0
         NMat0=    1 NMatS0=      1 NMatT0=    0 NMatD0=    1 NMtDS0=    0 NMtDT0=    0
 Petite list used in FoFCou.
 Initial guess <Sx>= 0.0000 <Sy>= 0.0000 <Sz>= 0.5000 <S**2>= 0.7500 S= 0.5000
 Keep R1 and R2 ints in memory in canonical form, NReq=915750.
 Requested convergence on RMS density matrix=1.00D-08 within 128 cycles.
 Requested convergence on MAX density matrix=1.00D-06.
 Requested convergence on             energy=1.00D-06.
 No special actions if energy rises.
 Integral accuracy reduced to 1.0D-05 until final iterations.
 Initial convergence to 1.0D-05 achieved.  Increase integral accuracy.
 SCF Done:  E(UB3LYP) =  -76.2588415691     A.U. after   14 cycles
            NFock= 14  Conv=0.96D-08     -V/T= 2.0106
 <Sx>= 0.0000 <Sy>= 0.0000 <Sz>= 0.5000 <S**2>= 0.7523 S= 0.5012
 <L.S>= 0.000000000000E+00
 Annihilation of the first spin contaminant:
 S**2 before annihilation     0.7523,   after     0.7500
 DoSCS=F DFT=T ScalE2(SS,OS)=  1.000000  1.000000
 ExpMin= 1.61D-01 ExpMax= 5.48D+03 ExpMxC= 8.25D+02 IAcc=3 IRadAn=         5 AccDes= 0.00D+00
 HarFok:  IExCor=  205 AccDes= 0.00D+00 IRadAn=         5 IDoV=-2 UseB2=F ITyADJ=14
 ICtDFT= 12500011 ScaDFX=  1.000000  1.000000  1.000000  1.000000
 Range of M.O.s used for correlation:     2    19
 NBasis=    19 NAE=     5 NBE=     4 NFC=     1 NFV=     0
 NROrb=     18 NOA=     4 NOB=     3 NVA=    14 NVB=    15
 Ignoring spin specification with unrestricted ground state.
 Keep R1, R2, and R3 ints in memory in canonical form, NReq=975611.
 Orbital symmetries:
 Alpha Orbitals:
       Occupied  (A) (A) (A) (A) (A)
       Virtual   (A) (A) (A) (A) (A) (A) (A) (A) (A) (A) (A) (A)
                 (A) (A)
 Beta  Orbitals:
       Occupied  (A) (A) (A) (A)
       Virtual   (A) (A) (A) (A) (A) (A) (A) (A) (A) (A) (A) (A)
                 (A) (A) (A)
    12 initial guesses have been made.
 Convergence on wavefunction:    0.000001000000000
 Iteration     1 Dimension    12 NMult     0 NNew     12
 CISAX will form    12 AO SS matrices at one time.
 Iteration     2 Dimension    18 NMult    12 NNew      6
 Iteration     3 Dimension    24 NMult    18 NNew      6
 Iteration     4 Dimension    30 NMult    24 NNew      6
 Iteration     5 Dimension    36 NMult    30 NNew      6
 Iteration     6 Dimension    42 NMult    36 NNew      6
 Iteration     7 Dimension    44 NMult    42 NNew      2
 Iteration     8 Dimension    46 NMult    44 NNew      2
 ***********************************************************************
 Excited states from <AA,BB:AA,BB> singles matrix:
 ***********************************************************************
 
 ExtSpn:  IState=     1 X2= 1.003 Y2= 0.003 X2-Y2-1=-2.22D-16
          S2Grnd=  0.752 Ra=  0.000 Rb=  0.002 T= -0.002 S2Ext=  0.000 S2=  0.753
 ExtSpn:  IState=     2 X2= 1.001 Y2= 0.001 X2-Y2-1=-2.22D-16
          S2Grnd=  0.752 Ra=  0.000 Rb=  0.002 T= -0.002 S2Ext=  0.000 S2=  0.753
 ExtSpn:  IState=     3 X2= 1.002 Y2= 0.002 X2-Y2-1=-1.11D-16
          S2Grnd=  0.752 Ra=  0.299 Rb=  0.700 T=  0.911 S2Ext=  1.910 S2=  2.663
 Ground to excited state transition densities written to RWF  633
 Ground to excited state transition electric dipole moments (Au):
       state          X           Y           Z        Dip. S.      Osc.
         1         0.0367     -0.0152      0.1294      0.0183      0.0010
         2        -0.0028     -0.0001      0.0019      0.0000      0.0000
         3        -0.0508      0.0835      0.0273      0.0103      0.0033
 Ground to excited state transition velocity dipole moments (Au):
       state          X           Y           Z        Dip. S.      Osc.
         1        -0.0104      0.0054     -0.0323      0.0012      0.0096
         2         0.0015      0.0010     -0.0019      0.0000      0.0000
         3         0.0309     -0.0481     -0.0159      0.0035      0.0049
 Ground to excited state transition magnetic dipole moments (Au):
       state          X           Y           Z
         1         0.7128      0.4840     -0.1361
         2         0.5467     -0.7435     -0.2499
         3        -0.0030     -0.0429      0.1251
 Ground to excited state transition velocity quadrupole moments (Au):
       state          XX          YY          ZZ          XY          XZ          YZ
         1         0.0517     -0.0023      0.0111     -0.0097      0.0818      0.0110
         2         0.0113     -0.0060     -0.0124      0.0016      0.0393      0.0296
         3        -0.2003     -0.0526     -0.0035      0.1376      0.0525     -0.0076
 <0|del|b> * <b|rxdel|0> + <0|del|b> * <b|delr+rdel|0>
 Rotatory Strengths (R) in cgs (10**-40 erg-esu-cm/Gauss)
       state          XX          YY          ZZ    R(velocity)    E-M Angle
         1        29.5345    -14.8655    -18.3862     -1.2391       90.83
         2        -0.4057      1.8650      0.1002      0.5198       77.11
         3         0.2984     -0.0949     -0.2376     -0.0114       90.00
 1/2[<0|r|b>*<b|rxdel|0> + (<0|rxdel|b>*<b|r|0>)*]
 Rotatory Strengths (R) in cgs (10**-40 erg-esu-cm/Gauss)
       state          XX          YY          ZZ     R(length)
         1       -18.5181      5.2006     12.4491     -0.2895
         2         1.0947     -0.0715      0.3292      0.4508
         3        -0.1081      2.5322     -2.4102      0.0046
  1/2[<0|del|b>*<b|r|0> + (<0|r|b>*<b|del|0>)*] (Au)
       state          X           Y           Z        Dip. S.   Osc.(frdel)
         1        -0.0004     -0.0001     -0.0042      0.0046      0.0031
         2         0.0000      0.0000      0.0000      0.0000      0.0000
         3        -0.0016     -0.0040     -0.0004      0.0060      0.0040

 Excitation energies and oscillator strengths:
 
 Excited State   1:  2.002-A      2.2384 eV  553.89 nm  f=0.0010  <S**2>=0.753
      4B ->  5B        1.00008
 This state for optimization and/or second-order correction.
 Total Energy, E(TD-HF/TD-KS) =  -76.1765805972    
 Copying the excited state density for this state as the 1-particle RhoCI density.
 
 Excited State   2:  2.003-A      6.8396 eV  181.27 nm  f=0.0000  <S**2>=0.753
      3B ->  5B        0.99872
 
 Excited State   3:  3.413-A     13.0652 eV   94.90 nm  f=0.0033  <S**2>=2.663
      5A ->  6A       -0.54021
      4B ->  6B        0.83403
 SavETr:  write IOETrn=   770 NScale= 10 NData=  16 NLR=1 NState=    3 LETran=      64.
          IDoAtm=111222
          Differentiating once with respect to electric field.
                with respect to dipole field.
          Differentiating once with respect to nuclear coordinates.
 Keep R1 and R2 ints in memory in canonical form, NReq=896278.
          There are     1 degrees of freedom in the 1st order CPHF.  IDoFFX=0 NUNeed=     1.
 LinEq1:  Iter=  0 NonCon=     1 RMS=1.19D-02 Max=6.55D-02 NDo=     1
 AX will form     1 AO Fock derivatives at one time.
 LinEq1:  Iter=  1 NonCon=     1 RMS=2.92D-03 Max=1.32D-02 NDo=     1
 LinEq1:  Iter=  2 NonCon=     1 RMS=1.28D-03 Max=7.40D-03 NDo=     1
 LinEq1:  Iter=  3 NonCon=     1 RMS=3.58D-04 Max=2.11D-03 NDo=     1
 LinEq1:  Iter=  4 NonCon=     1 RMS=8.05D-05 Max=5.62D-04 NDo=     1
 LinEq1:  Iter=  5 NonCon=     1 RMS=2.55D-05 Max=1.77D-04 NDo=     1
 LinEq1:  Iter=  6 NonCon=     1 RMS=7.15D-06 Max=4.46D-05 NDo=     1
 LinEq1:  Iter=  7 NonCon=     1 RMS=1.41D-06 Max=7.62D-06 NDo=     1
 LinEq1:  Iter=  8 NonCon=     1 RMS=1.20D-07 Max=6.06D-07 NDo=     1
 LinEq1:  Iter=  9 NonCon=     1 RMS=1.28D-08 Max=6.61D-08 NDo=     1
 LinEq1:  Iter= 10 NonCon=     1 RMS=2.71D-09 Max=1.25D-08 NDo=     1
 LinEq1:  Iter= 11 NonCon=     1 RMS=3.20D-10 Max=1.43D-09 NDo=     1
 LinEq1:  Iter= 12 NonCon=     0 RMS=3.74D-11 Max=1.64D-10 NDo=     1
 Linear equations converged to 1.000D-10 1.000D-09 after    12 iterations.
 End of Minotr F.D. properties file   721 does not exist.
 End of Minotr F.D. properties file   722 does not exist.
 End of Minotr F.D. properties file   788 does not exist.

 **********************************************************************

            Population analysis using the SCF density.

 **********************************************************************

 Orbital symmetries:
 Alpha Orbitals:
       Occupied  (A) (A) (A) (A) (A)
       Virtual   (A) (A) (A) (A) (A) (A) (A) (A) (A) (A) (A) (A)
                 (A) (A)
 Beta  Orbitals:
       Occupied  (A) (A) (A) (A)
       Virtual   (A) (A) (A) (A) (A) (A) (A) (A) (A) (A) (A) (A)
                 (A) (A) (A)
 The electronic state is 2-A.
 Alpha  occ. eigenvalues --  -19.74055  -1.56119  -1.04558  -0.90479  -0.88957
 Alpha virt. eigenvalues --   -0.29802  -0.21424   0.37342   0.38189   0.39652
 Alpha virt. eigenvalues --    0.44863   0.62109   0.73243   1.18754   1.22800
 Alpha virt. eigenvalues --    1.23698   1.77743   2.10543   3.05375
  Beta  occ. eigenvalues --  -19.71328  -1.48967  -1.02412  -0.85887
  Beta virt. eigenvalues --   -0.63809  -0.28732  -0.20817   0.37572   0.41065
  Beta virt. eigenvalues --    0.46417   0.47717   0.63603   0.76013   1.25262
  Beta virt. eigenvalues --    1.25968   1.30159   1.83304   2.11612   3.09787
          Condensed to atoms (all electrons):
               1          2          3
     1  O    7.657488   0.235213   0.232906
     2  H    0.235213   0.203053  -0.006383
     3  H    0.232906  -0.006383   0.215987
          Atomic-Atomic Spin Densities.
               1          2          3
     1  O    1.069593  -0.009772  -0.009301
     2  H   -0.009772  -0.016440   0.001165
     3  H   -0.009301   0.001165  -0.017334
 Mulliken charges and spin densities:
               1          2
     1  O   -0.125607   1.050519
     2  H    0.568118  -0.025047
     3  H    0.557490  -0.025471
     4  O   -0.834000   0.000000
     5  H    0.417000   0.000000
     6  H    0.417000   0.000000
 Sum of Mulliken charges =   1.00000   1.00000
 Mulliken charges and spin densities with hydrogens summed into heavy atoms:
               1          2
     1  O    1.000000   1.000000
     4  O    0.000000   0.000000
 Electronic spatial extent (au):  <R**2>=             79.6605
 Charge=              1.0000 electrons
 Dipole moment (field-independent basis, Debye):
    X=             -9.6324    Y=              3.4982    Z=              1.1590  Tot=             10.3132
 Quadrupole moment (field-independent basis, Debye-Ang):
   XX=              9.1246   YY=             -2.0987   ZZ=             -4.5473
   XY=              1.9597   XZ=             -0.5831   YZ=             -0.2081
 Traceless Quadrupole moment (field-independent basis, Debye-Ang):
   XX=              8.2984   YY=             -2.9249   ZZ=             -5.3735
   XY=              1.9597   XZ=             -0.5831   YZ=             -0.2081
 Octapole moment (field-independent basis, Debye-Ang**2):
  XXX=            -14.4461  YYY=              3.0290  ZZZ=              0.4773  XYY=              7.7039
  XXY=              6.5895  XXZ=              3.3037  XZZ=              6.5775  YZZ=              0.0528
  YYZ=              0.2546  XYZ=              0.3378
 Hexadecapole moment (field-independent basis, Debye-Ang**3):
 XXXX=             10.2779 YYYY=             -2.0978 ZZZZ=             -2.8593 XXXY=             12.6408
 XXXZ=             -5.9426 YYYX=             -0.5098 YYYZ=             -0.0377 ZZZX=             -0.4111
 ZZZY=             -0.0960 XXYY=             -5.6018 XXZZ=            -10.1203 YYZZ=             -1.2326
 XXYZ=             -0.4697 YYXZ=             -0.1057 ZZXY=             -0.1490
 N-N= 9.069720604012D+00 E-N=-1.936835738107D+02  KE= 7.545794154090D+01
                          Isotropic Fermi Contact Couplings
        Atom                 a.u.       MegaHertz       Gauss      10(-4) cm-1
     1  O(17)              0.73452    -445.26162    -158.88041    -148.52329
     2  H(1)               0.02437     108.93797      38.87178      36.33780
     3  H(1)               0.02828     126.42246      45.11068      42.16999
 --------------------------------------------------------
       Center         ----  Spin Dipole Couplings  ----
                      3XX-RR        3YY-RR        3ZZ-RR
 --------------------------------------------------------
     1   Atom       -0.024645      1.271517     -1.246872
     2   Atom        0.151266     -0.053720     -0.097546
     3   Atom       -0.017192      0.131306     -0.114114
 --------------------------------------------------------
                        XY            XZ            YZ
 --------------------------------------------------------
     1   Atom       -2.187415     -0.713191      0.976571
     2   Atom        0.062706     -0.071334     -0.010789
     3   Atom        0.109868     -0.011725      0.005276
 --------------------------------------------------------


 ---------------------------------------------------------------------------------
              Anisotropic Spin Dipole Couplings in Principal Axis System
 ---------------------------------------------------------------------------------

       Atom             a.u.   MegaHertz   Gauss  10(-4) cm-1        Axes

              Baa    -1.6597   120.098    42.854    40.060  0.7714  0.6214 -0.1372
     1 O(17)  Bbb    -1.5716   113.720    40.578    37.933  0.2681 -0.1219  0.9556
              Bcc     3.2313  -233.818   -83.432   -77.993 -0.5771  0.7740  0.2607
 
              Baa    -0.1172   -62.536   -22.314   -20.860  0.2800 -0.1146  0.9531
     2 H(1)   Bbb    -0.0698   -37.217   -13.280   -12.414 -0.2148  0.9602  0.1785
              Bcc     0.1870    99.753    35.594    33.274  0.9357  0.2547 -0.2443
 
              Baa    -0.1180   -62.956   -22.464   -21.000  0.2567 -0.1334  0.9572
     3 H(1)   Bbb    -0.0717   -38.240   -13.645   -12.755  0.8449 -0.4498 -0.2893
              Bcc     0.1897   101.196    36.109    33.755  0.4692  0.8831 -0.0028
 

 ---------------------------------------------------------------------------------

 Calling FoFJK, ICntrl=  10005127 FMM=F ISym2X=0 I1Cent= 0 IOpClX= 1 NMat=1 NMatS=1 NMatT=0.
 ***** Axes restored to original set *****
 Cartesian Forces:  Max     0.065561395 RMS     0.027003926
 SvSCFP is copying densities from files   528 and   530 to   603.
 ONIOM: saving gridpoint  2
 ONIOM: restoring gridpoint 17
 ONIOM: restoring gridpoint  1 on chk file.
 ONIOM: generating point  1 -- low level on model system.
 ChrgS2: IScale=     5     5     5     5     0     0 (distance 6..1 bonds)
 ChrgS2:  Scale=  1.00  1.00  1.00  1.00  0.00  0.00 (distance 6..1 bonds)
 Generating MM parameters for model system.
 Include all MM classes

 MM sanity checks:
 All charges sum to:                0.00000000
 Charges of atoms sum to:           0.00000000
       3 point charges sum to:      0.00000000
 MMInit generated parameter data with length LenPar=         553.
 Standard basis: Dummy (5D, 7F)
 There are     3 symmetry adapted cartesian basis functions of A   symmetry.
 There are     3 symmetry adapted basis functions of A   symmetry.
     3 basis functions,     3 primitive gaussians,     3 cartesian basis functions
     2 alpha electrons        2 beta electrons
       nuclear repulsion energy         2.3077694091 Hartrees.
 NAtoms=    6 NActive=    3 NUniq=    3 SFac= 1.00D+00 NAtFMM=   60 NAOKFM=F Big=F
 Integral buffers will be    131072 words long.
 Raffenetti 2 integral format.
 Two-electron integral symmetry is turned on.
 UFF calculation of energy and first derivatives.
 Energy=   -0.325741994     NIter=   0.
 Dipole moment=      -1.003416       1.339879       0.497895
 ***** Axes restored to original set *****
 Cartesian Forces:  Max     0.037144105 RMS     0.016333923
 ONIOM: saving gridpoint  1
 ONIOM: restoring gridpoint  3
 ONIOM: calculating energy.
 ONIOM: gridpoint  1 method:  low   system:  model energy:    -0.001020076373
 ONIOM: gridpoint  2 method:  high  system:  model energy:   -75.851858679912
 ONIOM: gridpoint  3 method:  low   system:  real  energy:     0.022168585181
 ONIOM: extrapolated energy =     -75.828670018358
 ONIOM: calculating first derivatives.
 ONIOM: calculating electric field derivatives.
 ONIOM: Integrating ONIOM file  4 number   619
 ONIOM: Dipole        = 3.56753416D+00 1.39715045D+00 8.16405888D-01
 ONIOM: Dipole moment (Debye):
    X=     9.0678    Y=     3.5512    Z=     2.0751  Tot=     9.9570
 ONIOM: Integrating ONIOM file  5 number   695
 Anisotropic Hyperfine tensors: 
                 1             2             3             4             5 
      1  -0.572588D-01  0.177722D+00 -0.348860D-02  0.000000D+00  0.000000D+00
      2   0.229460D+01 -0.478020D-01 -0.114785D+00  0.000000D+00  0.000000D+00
      3   0.162590D+01 -0.605558D-01  0.121441D+00  0.000000D+00  0.000000D+00
      4   0.683075D-01 -0.983107D-03  0.181403D-02  0.000000D+00  0.000000D+00
      5   0.977055D-01  0.149537D-02 -0.580045D-03  0.000000D+00  0.000000D+00
      6  -0.156864D+01 -0.117166D+00 -0.117953D+00  0.000000D+00  0.000000D+00
                 6 
      1   0.000000D+00
      2   0.000000D+00
      3   0.000000D+00
      4   0.000000D+00
      5   0.000000D+00
      6   0.000000D+00
 ONIOM Fermi contact: 
               1
     1  O    0.734518
     2  H    0.024372
     3  H    0.028283
     4  O    0.000000
     5  H    0.000000
     6  H    0.000000
 Nuclear Quadrupole Tensors: 
                 1             2             3             4             5 
      1  -0.111585D+01 -0.452183D+00  0.630935D-01  0.000000D+00  0.000000D+00
      2  -0.119206D+01  0.568652D-01  0.242928D+00  0.000000D+00  0.000000D+00
      3  -0.204094D+01  0.172693D+00 -0.344804D+00  0.000000D+00  0.000000D+00
      4  -0.947931D-01  0.203027D-02 -0.682329D-02  0.000000D+00  0.000000D+00
      5  -0.908892D-01 -0.162554D-02 -0.384994D-03  0.000000D+00  0.000000D+00
      6   0.315678D+01  0.279491D+00  0.281711D+00  0.000000D+00  0.000000D+00
                 6 
      1   0.000000D+00
      2   0.000000D+00
      3   0.000000D+00
      4   0.000000D+00
      5   0.000000D+00
      6   0.000000D+00
 Rotating derivatives to standard orientation.
 ***** Axes restored to original set *****
 -------------------------------------------------------------------
 Center     Atomic                   Forces (Hartrees/Bohr)
 Number     Number              X              Y              Z
 -------------------------------------------------------------------
      1        8           0.072400363    0.028103773    0.029970679
      2        1           0.051538139   -0.055104037   -0.001931044
      3        1          -0.053947033    0.038643137    0.008928061
      4        8          -0.007304533   -0.034305080    0.006770373
      5        1          -0.051812080   -0.007835119   -0.040869296
      6        1          -0.010874856    0.030497326   -0.002868773
 -------------------------------------------------------------------
 Cartesian Forces:  Max     0.072400363 RMS     0.036406895

 GradGradGradGradGradGradGradGradGradGradGradGradGradGradGradGradGradGrad
 Berny optimization.
 FormGI is forming the generalized inverse of G from B-inverse, IUseBI=4.
 Internal  Forces:  Max     0.109053349 RMS     0.073362409
 Search for a local minimum.
 Step number   1 out of a maximum of    2
 All quantities printed in internal units (Hartrees-Bohrs-Radians)
 Second derivative matrix not updated -- first step.
 The second derivative matrix:
                          R1        R2        A1
           R1           0.55473
           R2           0.00000   0.55473
           A1           0.00000   0.00000   0.16000
 ITU=  0
     Eigenvalues ---    0.16000   0.55473   0.55473
 Quadratic step=6.916D-01 exceeds max=3.000D-01 adjusted using Lamda=-2.184D-01.
 Angle between NR and scaled steps=   6.53 degrees.
 Angle between quadratic step and forces=  14.57 degrees.
 Linear search not attempted -- first point.
 Iteration  1 RMS(Cart)=  0.13491104 RMS(Int)=  0.05525276
 Iteration  2 RMS(Cart)=  0.04870714 RMS(Int)=  0.00174571
 Iteration  3 RMS(Cart)=  0.00168493 RMS(Int)=  0.00000020
 Iteration  4 RMS(Cart)=  0.00000017 RMS(Int)=  0.00000000
 Variable       Old X    -DE/DX   Delta X   Delta X   Delta X     New X
                                 (Linear)    (Quad)   (Total)
    R1        1.81414   0.02775   0.00000   0.03590   0.03590   1.85003
    R2        1.81414   0.05902   0.00000   0.07634   0.07634   1.89048
    A1        1.91114   0.10905   0.00000   0.28821   0.28821   2.19934
         Item               Value     Threshold  Converged?
 Maximum Force            0.109053     0.000450     NO 
 RMS     Force            0.073362     0.000300     NO 
 Maximum Displacement     0.191654     0.001800     NO 
 RMS     Displacement     0.177925     0.001200     NO 
 Maximum MM Force         0.051812     0.000450     NO 
 RMS     MM Force         0.027384     0.000300     NO 
 Predicted change in Energy=-2.831271D-02
 GradGradGradGradGradGradGradGradGradGradGradGradGradGradGradGradGradGrad

 1\1\GINC-EAM\Force\ONIOM(B3LYP TD-FC/6-31G(d):UFF)\Mixed\H4O2(1+,2)\DU
 LIKAI\06-Jan-2015\0\\# force td(singlet,nstates=3,root=1) oniom(b3lyp/
 6-31g(d):uff)=embed geom=connectivity\\Title Card Required\\1,2\O,1.95
 331702,1.80589678,0.\H,2.91331702,1.80589678,0.\H,1.63286243,2.7108326
 1,0.\O,-0.82934594,1.6846096,-0.85549805\H,0.13065406,1.6846096,-0.855
 49805\H,-1.14980053,2.58954543,-0.85549805\\Version=EM64L-G09RevD.01\H
 F=-0.325742\S2=0.752341\S2-1=0.\S2A=0.750003\RMSD=9.551e-09\RMSF=3.641
 e-02\Dipole=3.5675342,1.3971504,0.8164059\PG=C01 [X(H4O2)]\\@


 REFRAIN FROM ILLUSIONS, INSIST ON WORK AND NOT WORDS,
 PATIENTLY SEEK DIVINE AND SCIENTIFIC TRUTH.
 LAST WORDS OF MARIA MENDELEEVA TO HER SON DMITRI, C. 1850
 Job cpu time:       0 days  0 hours  0 minutes  6.2 seconds.
 File lengths (MBytes):  RWF=      5 Int=      0 D2E=      0 Chk=      1 Scr=      1
 Normal termination of Gaussian 09 at Tue Jan  6 21:42:37 2015.
