 Entering Gaussian System, Link 0=g09
 Input=oniom.gjf
 Output=oniom.log
 Initial command:
 /opt/g09_D01_em64t/g09/l1.exe "/tmp/Gau-26644.inp" -scrdir="/tmp/"
 Entering Link 1 = /opt/g09_D01_em64t/g09/l1.exe PID=     26645.
  
 Copyright (c) 1988,1990,1992,1993,1995,1998,2003,2009,2013,
            Gaussian, Inc.  All Rights Reserved.
  
 This is part of the Gaussian(R) 09 program.  It is based on
 the Gaussian(R) 03 system (copyright 2003, Gaussian, Inc.),
 the Gaussian(R) 98 system (copyright 1998, Gaussian, Inc.),
 the Gaussian(R) 94 system (copyright 1995, Gaussian, Inc.),
 the Gaussian 92(TM) system (copyright 1992, Gaussian, Inc.),
 the Gaussian 90(TM) system (copyright 1990, Gaussian, Inc.),
 the Gaussian 88(TM) system (copyright 1988, Gaussian, Inc.),
 the Gaussian 86(TM) system (copyright 1986, Carnegie Mellon
 University), and the Gaussian 82(TM) system (copyright 1983,
 Carnegie Mellon University). Gaussian is a federally registered
 trademark of Gaussian, Inc.
  
 This software contains proprietary and confidential information,
 including trade secrets, belonging to Gaussian, Inc.
  
 This software is provided under written license and may be
 used, copied, transmitted, or stored only in accord with that
 written license.
  
 The following legend is applicable only to US Government
 contracts under FAR:
  
                    RESTRICTED RIGHTS LEGEND
  
 Use, reproduction and disclosure by the US Government is
 subject to restrictions as set forth in subparagraphs (a)
 and (c) of the Commercial Computer Software - Restricted
 Rights clause in FAR 52.227-19.
  
 Gaussian, Inc.
 340 Quinnipiac St., Bldg. 40, Wallingford CT 06492
  
  
 ---------------------------------------------------------------
 Warning -- This program may not be used in any manner that
 competes with the business of Gaussian, Inc. or will provide
 assistance to any competitor of Gaussian, Inc.  The licensee
 of this program is prohibited from giving any competitor of
 Gaussian, Inc. access to this program.  By using this program,
 the user acknowledges that Gaussian, Inc. is engaged in the
 business of creating and licensing software in the field of
 computational chemistry and represents and warrants to the
 licensee that it is not a competitor of Gaussian, Inc. and that
 it will not use this program in any manner prohibited above.
 ---------------------------------------------------------------
  

 Cite this work as:
 Gaussian 09, Revision D.01,
 M. J. Frisch, G. W. Trucks, H. B. Schlegel, G. E. Scuseria, 
 M. A. Robb, J. R. Cheeseman, G. Scalmani, V. Barone, B. Mennucci, 
 G. A. Petersson, H. Nakatsuji, M. Caricato, X. Li, H. P. Hratchian, 
 A. F. Izmaylov, J. Bloino, G. Zheng, J. L. Sonnenberg, M. Hada, 
 M. Ehara, K. Toyota, R. Fukuda, J. Hasegawa, M. Ishida, T. Nakajima, 
 Y. Honda, O. Kitao, H. Nakai, T. Vreven, J. A. Montgomery, Jr., 
 J. E. Peralta, F. Ogliaro, M. Bearpark, J. J. Heyd, E. Brothers, 
 K. N. Kudin, V. N. Staroverov, T. Keith, R. Kobayashi, J. Normand, 
 K. Raghavachari, A. Rendell, J. C. Burant, S. S. Iyengar, J. Tomasi, 
 M. Cossi, N. Rega, J. M. Millam, M. Klene, J. E. Knox, J. B. Cross, 
 V. Bakken, C. Adamo, J. Jaramillo, R. Gomperts, R. E. Stratmann, 
 O. Yazyev, A. J. Austin, R. Cammi, C. Pomelli, J. W. Ochterski, 
 R. L. Martin, K. Morokuma, V. G. Zakrzewski, G. A. Voth, 
 P. Salvador, J. J. Dannenberg, S. Dapprich, A. D. Daniels, 
 O. Farkas, J. B. Foresman, J. V. Ortiz, J. Cioslowski, 
 and D. J. Fox, Gaussian, Inc., Wallingford CT, 2013.
 
 ******************************************
 Gaussian 09:  EM64L-G09RevD.01 24-Apr-2013
                 5-Jan-2015 
 ******************************************
 %chk=oniom.chk
 %mem=1GB
 ----------------------------------------------------------------------
 #p td(singlet,nstates=3,root=1) oniom(b3lyp/6-31g(d,p):uff)=embed nosy
 mm geom=connectivity
 ----------------------------------------------------------------------
 1/38=1,52=12,56=1,57=2,61=3,64=2,74=500/1;
 2/12=2,15=1,17=6,18=5,40=1/2;
 1/38=1,52=12,53=3172,61=3,64=2,74=500/20;
 3/5=30,11=9,16=1,25=1,30=1,41=10200000,43=2/1;
 4/20=10,24=3,31=1/2;
 1/52=12,53=2032,61=3,74=500/20;
 3/5=1,6=6,7=101,11=9,16=1,25=1,30=1,74=-5/1,2,8,3;
 4//1;
 5/5=2,38=5/2;
 8/6=1,10=2,107=1,108=3/1;
 9/8=1,41=3,42=1,48=1,70=2/14;
 6/7=2,8=2,9=2,10=2/1;
 1/52=12,53=1022,61=3,64=2,74=500/20;
 3/5=30,11=9,16=1,25=1,30=1,41=10200000,43=2/1;
 4/20=10,24=3,31=1/2;
 1/52=12,53=3014,61=3,64=2,74=500/20;
 99/5=1,9=1/99;
 Leave Link    1 at Mon Jan  5 22:06:11 2015, MaxMem=   134217728 cpu:         0.0
 (Enter /opt/g09_D01_em64t/g09/l101.exe)
 ONIOM: restoring gridpoint  3 on chk file.
 ------
 ch2nh2
 ------
 Symbolic Z-matrix:
 Charge =  0 Multiplicity = 1 for low   level calculation on real  system.
 Charge =  1 Multiplicity = 1 for high  level calculation on model system.
 Charge =  0 Multiplicity = 1 for low   level calculation on model system.
 N-N_2                0    -3.91984   1.74253  -0.19144  H 
 C-C_2                0    -2.80888   1.08729  -0.29063  H 
 H-H_                 0    -4.78505   1.29768  -0.42278  H 
 H-H_                 0    -3.91343   2.69389   0.11656  H 
 H-H_                 0    -2.81573   0.06934  -0.6202   H 
 H-H_                 0    -1.88309   1.56327  -0.0431   H 
 O-O_3                0    -4.57554   0.45327  -1.75912  L 
 H-H_                 0    -3.61554   0.45351  -1.75912  L 
 H-H_                 0    -4.89577   1.35828  -1.75912  L 
 O-O_3                0    -5.66762   3.59541   0.33689  L 
 H-H_                 0    -4.70762   3.59565   0.33689  L 
 H-H_                 0    -5.98785   4.50043   0.33689  L 
 O-O_3                0    -1.62148   2.9288    1.99349  L 
 H-H_                 0    -0.66148   2.92904   1.99349  L 
 H-H_                 0    -1.94171   3.83382   1.99349  L 
 O-O_3                0    -2.207    -0.51566   1.45941  L 
 H-H_                 0    -1.247    -0.51542   1.45941  L 
 H-H_                 0    -2.52723   0.38936   1.45941  L 
 
 NAtoms=     18 NQM=        6 NQMF=       0 NMMI=     12 NMMIF=      0
                NMic=       0 NMicF=      0.
                    Isotopes and Nuclear Properties:
 (Nuclear quadrupole moments (NQMom) in fm**2, nuclear magnetic moments (NMagM)
  in nuclear magnetons)

  Atom         1           2           3           4           5           6           7           8           9          10
 IAtWgt=          14          12           1           1           1           1          16           1           1          16
 AtmWgt=  14.0030740  12.0000000   1.0078250   1.0078250   1.0078250   1.0078250  15.9949146   1.0078250   1.0078250  15.9949146
 NucSpn=           2           0           1           1           1           1           0           1           1           0
 AtZEff=   0.0000000   0.0000000   0.0000000   0.0000000   0.0000000   0.0000000   0.0000000   0.0000000   0.0000000   0.0000000
 NQMom=    2.0440000   0.0000000   0.0000000   0.0000000   0.0000000   0.0000000   0.0000000   0.0000000   0.0000000   0.0000000
 NMagM=    0.4037610   0.0000000   2.7928460   2.7928460   2.7928460   2.7928460   0.0000000   2.7928460   2.7928460   0.0000000
 AtZNuc=   7.0000000   6.0000000   1.0000000   1.0000000   1.0000000   1.0000000   8.0000000   1.0000000   1.0000000   8.0000000

  Atom        11          12          13          14          15          16          17          18
 IAtWgt=           1           1          16           1           1          16           1           1
 AtmWgt=   1.0078250   1.0078250  15.9949146   1.0078250   1.0078250  15.9949146   1.0078250   1.0078250
 NucSpn=           1           1           0           1           1           0           1           1
 AtZEff=   0.0000000   0.0000000   0.0000000   0.0000000   0.0000000   0.0000000   0.0000000   0.0000000
 NQMom=    0.0000000   0.0000000   0.0000000   0.0000000   0.0000000   0.0000000   0.0000000   0.0000000
 NMagM=    2.7928460   2.7928460   0.0000000   2.7928460   2.7928460   0.0000000   2.7928460   2.7928460
 AtZNuc=   1.0000000   1.0000000   8.0000000   1.0000000   1.0000000   8.0000000   1.0000000   1.0000000
 Generating MM parameters.
 I=    1 IAn=  7 Valence= 4.
          JB=  1 J=    2 IAn=  6 IBT= 2 Dist= 1.29D+00
          JB=  2 J=    3 IAn=  1 IBT= 1 Dist= 1.00D+00
          JB=  3 J=    4 IAn=  1 IBT= 1 Dist= 1.00D+00
 Include all MM classes

 MM sanity checks:
 All charges sum to:                0.00000000
 Charges of atoms sum to:           0.00000000
 Layer 1 (S) has      6 atoms and charge   0.00000000 sum=   0.00000000
 Layer 2 (R) adds    12 atoms and charge   0.00000000 sum=   0.00000000
 MMInit generated parameter data with length LenPar=        1489.
 Leave Link  101 at Mon Jan  5 22:06:11 2015, MaxMem=   134217728 cpu:         0.1
 (Enter /opt/g09_D01_em64t/g09/l202.exe)
                          Input orientation:                          
 ---------------------------------------------------------------------
 Center     Atomic      Atomic             Coordinates (Angstroms)
 Number     Number       Type             X           Y           Z
 ---------------------------------------------------------------------
      1          7    10071002       -3.919836    1.742526   -0.191445
      2          6    10061002       -2.808876    1.087293   -0.290629
      3          1    10011000       -4.785052    1.297683   -0.422780
      4          1    10011000       -3.913433    2.693888    0.116563
      5          1    10011000       -2.815727    0.069336   -0.620198
      6          1    10011000       -1.883095    1.563275   -0.043100
      7          8    10081003       -4.575539    0.453266   -1.759118
      8          1    10011000       -3.615539    0.453507   -1.759118
      9          1    10011000       -4.895766    1.358283   -1.759118
     10          8    10081003       -5.667623    3.595411    0.336888
     11          1    10011000       -4.707623    3.595653    0.336888
     12          1    10011000       -5.987850    4.500428    0.336888
     13          8    10081003       -1.621482    2.928803    1.993493
     14          1    10011000       -0.661482    2.929044    1.993493
     15          1    10011000       -1.941709    3.833819    1.993493
     16          8    10081003       -2.207002   -0.515660    1.459410
     17          1    10011000       -1.247003   -0.515419    1.459410
     18          1    10011000       -2.527230    0.389356    1.459410
 ---------------------------------------------------------------------
                    Distance matrix (angstroms):
                    1          2          3          4          5
     1  N    0.000000
     2  C    1.293600   0.000000
     3  H    1.000000   1.991733   0.000000
     4  H    1.000000   1.991733   1.732051   0.000000
     5  H    2.049989   1.070000   2.329389   2.938716   0.000000
     6  H    2.049989   1.070000   2.938716   2.329389   1.853294
     7  O    2.133011   2.383180   1.594595   2.996155   2.131075
     8  H    2.052258   1.791326   1.966263   2.937043   1.443754
     9  H    1.886181   2.566127   1.342284   2.503397   2.699090
    10  O    2.601361   3.854461   2.575963   1.984557   4.634926
    11  H    2.081783   3.207941   2.421520   1.221662   4.114632
    12  H    3.487383   4.706288   3.504482   2.759589   5.532898
    13  O    3.385800   3.165166   4.301989   2.971716   4.053907
    14  H    4.098616   3.636009   5.050104   3.762095   4.432842
    15  H    3.613924   3.675949   4.511648   2.951272   4.665472
    16  O    3.280019   2.448336   3.671130   3.875093   2.244446
    17  H    3.868809   2.840910   4.398611   4.383235   2.669758
    18  H    2.548675   1.905014   3.076599   3.005939   2.123774
                    6          7          8          9         10
     6  H    0.000000
     7  O    3.380250   0.000000
     8  H    2.679116   0.960000   0.000000
     9  H    3.473173   0.960000   1.567673   0.000000
    10  O    4.312380   3.931789   4.298354   3.161289   0.000000
    11  H    3.500415   3.779587   3.931789   3.071557   0.960000
    12  H    5.061647   4.771518   5.137963   3.931789   0.960000
    13  O    2.465932   5.379296   4.917870   5.222027   4.422664
    14  H    2.739594   5.960823   5.379296   5.871843   5.315057
    15  H    3.050659   5.696252   5.320743   5.379296   4.084557
    16  O    2.585426   4.111898   3.644473   4.593478   5.489705
    17  H    2.642559   4.730373   4.111898   5.213747   6.140103
    18  H    2.012594   3.815570   3.398155   4.111898   4.626112
                   11         12         13         14         15
    11  H    0.000000
    12  H    1.567673   0.000000
    13  O    3.565570   4.927425   0.000000
    14  H    4.422664   5.795151   0.960000   0.000000
    15  H    3.232853   4.422664   0.960000   1.567673   0.000000
    16  O    4.941260   6.380909   3.534460   3.813118   4.390171
    17  H    5.489705   6.992454   3.505445   3.534460   4.436636
    18  H    4.036645   5.489705   2.748530   3.196291   3.534460
                   16         17         18
    16  O    0.000000
    17  H    0.960000   0.000000
    18  H    0.960000   1.567673   0.000000
 Symmetry turned off by external request.
 Stoichiometry    CH12NO4
 Framework group  C1[X(CH12NO4)]
 Deg. of freedom    48
 Full point group                 C1      NOp   1
 Rotational constants (GHZ):      1.8363147      1.4331213      0.8965048
 Leave Link  202 at Mon Jan  5 22:06:11 2015, MaxMem=   134217728 cpu:         0.0
 (Enter /opt/g09_D01_em64t/g09/l120.exe)
 ONIOM: saving gridpoint 17
 ONIOM: restoring gridpoint  3 on chk file.
 ONIOM: generating point  3 -- low level on real system.
 ChrgS2: IScale=     5     5     5     5     0     0 (distance 6..1 bonds)
 ChrgS2:  Scale=  1.00  1.00  1.00  1.00  0.00  0.00 (distance 6..1 bonds)
 Leave Link  120 at Mon Jan  5 22:06:11 2015, MaxMem=   134217728 cpu:         0.0
 (Enter /opt/g09_D01_em64t/g09/l301.exe)
 Standard basis: Dummy (5D, 7F)
 The combination of multiplicity 1 and    23 electrons is impossible.
 Error termination via Lnk1e in /opt/g09_D01_em64t/g09/l301.exe at Mon Jan  5 22:06:11 2015.
 Job cpu time:       0 days  0 hours  0 minutes  0.2 seconds.
 File lengths (MBytes):  RWF=      5 Int=      0 D2E=      0 Chk=      2 Scr=      1
