 Entering Gaussian System, Link 0=g09
 Input=qm.gjf
 Output=qm.log
 Initial command:
 /opt/g09_D01_em64t/g09/l1.exe "/tmp/Gau-26217.inp" -scrdir="/tmp/"
 Entering Link 1 = /opt/g09_D01_em64t/g09/l1.exe PID=     26218.
  
 Copyright (c) 1988,1990,1992,1993,1995,1998,2003,2009,2013,
            Gaussian, Inc.  All Rights Reserved.
  
 This is part of the Gaussian(R) 09 program.  It is based on
 the Gaussian(R) 03 system (copyright 2003, Gaussian, Inc.),
 the Gaussian(R) 98 system (copyright 1998, Gaussian, Inc.),
 the Gaussian(R) 94 system (copyright 1995, Gaussian, Inc.),
 the Gaussian 92(TM) system (copyright 1992, Gaussian, Inc.),
 the Gaussian 90(TM) system (copyright 1990, Gaussian, Inc.),
 the Gaussian 88(TM) system (copyright 1988, Gaussian, Inc.),
 the Gaussian 86(TM) system (copyright 1986, Carnegie Mellon
 University), and the Gaussian 82(TM) system (copyright 1983,
 Carnegie Mellon University). Gaussian is a federally registered
 trademark of Gaussian, Inc.
  
 This software contains proprietary and confidential information,
 including trade secrets, belonging to Gaussian, Inc.
  
 This software is provided under written license and may be
 used, copied, transmitted, or stored only in accord with that
 written license.
  
 The following legend is applicable only to US Government
 contracts under FAR:
  
                    RESTRICTED RIGHTS LEGEND
  
 Use, reproduction and disclosure by the US Government is
 subject to restrictions as set forth in subparagraphs (a)
 and (c) of the Commercial Computer Software - Restricted
 Rights clause in FAR 52.227-19.
  
 Gaussian, Inc.
 340 Quinnipiac St., Bldg. 40, Wallingford CT 06492
  
  
 ---------------------------------------------------------------
 Warning -- This program may not be used in any manner that
 competes with the business of Gaussian, Inc. or will provide
 assistance to any competitor of Gaussian, Inc.  The licensee
 of this program is prohibited from giving any competitor of
 Gaussian, Inc. access to this program.  By using this program,
 the user acknowledges that Gaussian, Inc. is engaged in the
 business of creating and licensing software in the field of
 computational chemistry and represents and warrants to the
 licensee that it is not a competitor of Gaussian, Inc. and that
 it will not use this program in any manner prohibited above.
 ---------------------------------------------------------------
  

 Cite this work as:
 Gaussian 09, Revision D.01,
 M. J. Frisch, G. W. Trucks, H. B. Schlegel, G. E. Scuseria, 
 M. A. Robb, J. R. Cheeseman, G. Scalmani, V. Barone, B. Mennucci, 
 G. A. Petersson, H. Nakatsuji, M. Caricato, X. Li, H. P. Hratchian, 
 A. F. Izmaylov, J. Bloino, G. Zheng, J. L. Sonnenberg, M. Hada, 
 M. Ehara, K. Toyota, R. Fukuda, J. Hasegawa, M. Ishida, T. Nakajima, 
 Y. Honda, O. Kitao, H. Nakai, T. Vreven, J. A. Montgomery, Jr., 
 J. E. Peralta, F. Ogliaro, M. Bearpark, J. J. Heyd, E. Brothers, 
 K. N. Kudin, V. N. Staroverov, T. Keith, R. Kobayashi, J. Normand, 
 K. Raghavachari, A. Rendell, J. C. Burant, S. S. Iyengar, J. Tomasi, 
 M. Cossi, N. Rega, J. M. Millam, M. Klene, J. E. Knox, J. B. Cross, 
 V. Bakken, C. Adamo, J. Jaramillo, R. Gomperts, R. E. Stratmann, 
 O. Yazyev, A. J. Austin, R. Cammi, C. Pomelli, J. W. Ochterski, 
 R. L. Martin, K. Morokuma, V. G. Zakrzewski, G. A. Voth, 
 P. Salvador, J. J. Dannenberg, S. Dapprich, A. D. Daniels, 
 O. Farkas, J. B. Foresman, J. V. Ortiz, J. Cioslowski, 
 and D. J. Fox, Gaussian, Inc., Wallingford CT, 2013.
 
 ******************************************
 Gaussian 09:  EM64L-G09RevD.01 24-Apr-2013
                 5-Jan-2015 
 ******************************************
 %chk=qm.chk
 %mem=1GB
 --------------------------------------------------------------
 # force td=(nstates=3,root=1,singlet) nosymm geom=connectivity
 --------------------------------------------------------------
 1/10=7,30=1,38=1,57=2/1,3;
 2/12=2,15=1,17=6,18=5,40=1/2;
 3/11=9,16=1,25=1,30=1,71=1/1,2,8,3;
 4//1;
 5/5=2,38=5/2;
 8/6=1,10=1,107=1,108=3/1;
 9/8=1,15=2,41=3,42=1,48=1,70=2/14;
 10/5=4,31=1/2;
 6/7=2,8=2,9=2,10=2,18=1/1;
 7/12=6,13=5,14=1,29=1,30=1/1,2,3,16;
 1/10=7,30=1/3;
 99//99;
 ------
 ch2nh2
 ------
 Symbolic Z-matrix:
 Charge =  1 Multiplicity = 1
 N-N_2                -3.91984   1.74253  -0.19144 
 C-C_2                -2.80888   1.08729  -0.29063 
 H-H_                 -4.78505   1.29768  -0.42278 
 H-H_                 -3.91343   2.69389   0.11656 
 H-H_                 -2.81573   0.06934  -0.6202 
 H-H_                 -1.88309   1.56327  -0.0431 
 

 GradGradGradGradGradGradGradGradGradGradGradGradGradGradGradGradGradGrad
 Berny optimization.
 Initialization pass.
 Trust Radius=3.00D-01 FncErr=1.00D-07 GrdErr=1.00D-07
 Number of steps in this run=      2 maximum allowed number of steps=      2.
 GradGradGradGradGradGradGradGradGradGradGradGradGradGradGradGradGradGrad

                          Input orientation:                          
 ---------------------------------------------------------------------
 Center     Atomic      Atomic             Coordinates (Angstroms)
 Number     Number       Type             X           Y           Z
 ---------------------------------------------------------------------
      1          7    10071002       -3.919836    1.742526   -0.191445
      2          6    10061002       -2.808876    1.087293   -0.290629
      3          1    10011000       -4.785052    1.297683   -0.422780
      4          1    10011000       -3.913433    2.693888    0.116563
      5          1    10011000       -2.815727    0.069336   -0.620198
      6          1    10011000       -1.883095    1.563275   -0.043100
 ---------------------------------------------------------------------
                    Distance matrix (angstroms):
                    1          2          3          4          5
     1  N    0.000000
     2  C    1.293600   0.000000
     3  H    1.000000   1.991733   0.000000
     4  H    1.000000   1.991733   1.732051   0.000000
     5  H    2.049989   1.070000   2.329389   2.938716   0.000000
     6  H    2.049989   1.070000   2.938716   2.329389   1.853294
                    6
     6  H    0.000000
 Symmetry turned off by external request.
 Stoichiometry    CH4N(1+)
 Framework group  C2[C2(CN),X(H4)]
 Deg. of freedom     6
 Full point group                 C2      NOp   2
 Rotational constants (GHZ):    155.8596669     31.0153726     25.8677973
 Standard basis: STO-3G (5D, 7F)
    14 basis functions,    42 primitive gaussians,    14 cartesian basis functions
     8 alpha electrons        8 beta electrons
       nuclear repulsion energy        38.7319558555 Hartrees.
 NAtoms=    6 NActive=    6 NUniq=    6 SFac= 1.00D+00 NAtFMM=   60 NAOKFM=F Big=F
 Integral buffers will be    131072 words long.
 Raffenetti 1 integral format.
 Two-electron integral symmetry is turned off.
 One-electron integrals computed using PRISM.
 NBasis=    14 RedAO= T EigKep=  2.11D-01  NBF=    14
 NBsUse=    14 1.00D-06 EigRej= -1.00D+00 NBFU=    14
 ExpMin= 1.69D-01 ExpMax= 9.91D+01 ExpMxC= 9.91D+01 IAcc=1 IRadAn=         1 AccDes= 0.00D+00
 Harris functional with IExCor=  205 and IRadAn=       1 diagonalized for initial guess.
 HarFok:  IExCor=  205 AccDes= 0.00D+00 IRadAn=         1 IDoV= 1 UseB2=F ITyADJ=14
 ICtDFT=  3500011 ScaDFX=  1.000000  1.000000  1.000000  1.000000
 FoFCou: FMM=F IPFlag=           0 FMFlag=      100000 FMFlg1=           0
         NFxFlg=           0 DoJE=T BraDBF=F KetDBF=T FulRan=T
         wScrn=  0.000000 ICntrl=     500 IOpCl=  0 I1Cent=   200000004 NGrid=           0
         NMat0=    1 NMatS0=      1 NMatT0=    0 NMatD0=    1 NMtDS0=    0 NMtDT0=    0
 Symmetry not used in FoFCou.
 Keep R1 ints in memory in canonical form, NReq=831563.
 Requested convergence on RMS density matrix=1.00D-08 within 128 cycles.
 Requested convergence on MAX density matrix=1.00D-06.
 Requested convergence on             energy=1.00D-06.
 No special actions if energy rises.
 SCF Done:  E(RHF) =  -93.2295014598     A.U. after    9 cycles
            NFock=  9  Conv=0.44D-08     -V/T= 2.0182
 ExpMin= 1.69D-01 ExpMax= 9.91D+01 ExpMxC= 9.91D+01 IAcc=3 IRadAn=         5 AccDes= 0.00D+00
 HarFok:  IExCor=  205 AccDes= 0.00D+00 IRadAn=         5 IDoV=-2 UseB2=F ITyADJ=14
 ICtDFT= 12500011 ScaDFX=  1.000000  1.000000  1.000000  1.000000
 Range of M.O.s used for correlation:     3    14
 NBasis=    14 NAE=     8 NBE=     8 NFC=     2 NFV=     0
 NROrb=     12 NOA=     6 NOB=     6 NVA=     6 NVB=     6
 Keep R1, R2, and R3 ints in memory in canonical form, NReq=817721.
    12 initial guesses have been made.
 Convergence on wavefunction:    0.000001000000000
 Iteration     1 Dimension    12 NMult     0 NNew     12
 CISAX will form    12 AO SS matrices at one time.
 New state      1 was old state      2
 New state      2 was old state      3
 New state      3 was old state      1
 Iteration     2 Dimension    18 NMult    12 NNew      6
 New state      2 was old state      3
 New state      3 was old state      2
 Iteration     3 Dimension    21 NMult    18 NNew      3
 Iteration     4 Dimension    23 NMult    21 NNew      2
 Iteration     5 Dimension    25 NMult    23 NNew      2
 Iteration     6 Dimension    27 NMult    25 NNew      2
 Iteration     7 Dimension    29 NMult    27 NNew      2
 ***********************************************************************
 Excited states from <AA,BB:AA,BB> singles matrix:
 ***********************************************************************
 
 Ground to excited state transition densities written to RWF  633
 Ground to excited state transition electric dipole moments (Au):
       state          X           Y           Z        Dip. S.      Osc.
         1         0.0000      0.0000      0.0000      0.0000      0.0000
         2        -1.0527      0.6209      0.0940      1.5025      0.3998
         3        -0.0145     -0.0462      0.1429      0.0228      0.0065
 Ground to excited state transition velocity dipole moments (Au):
       state          X           Y           Z        Dip. S.      Osc.
         1         0.0000      0.0000      0.0000      0.0000      0.0000
         2         0.2535     -0.1495     -0.0226      0.0871      0.1455
         3         0.0046      0.0147     -0.0455      0.0023      0.0036
 Ground to excited state transition magnetic dipole moments (Au):
       state          X           Y           Z
         1         1.1268     -0.6646     -0.1006
         2        -0.1286     -0.2593      0.2727
         3         0.7393      1.0769      0.4228
 Ground to excited state transition velocity quadrupole moments (Au):
       state          XX          YY          ZZ          XY          XZ          YZ
         1        -0.0014     -0.0069      0.0083     -0.0032      0.0063      0.0094
         2        -3.2568     -0.8005      0.0878      1.6547      0.0260     -0.0141
         3        -0.0584      0.0782      0.0417     -0.0808      0.2861     -0.1277
 <0|del|b> * <b|rxdel|0> + <0|del|b> * <b|delr+rdel|0>
 Rotatory Strengths (R) in cgs (10**-40 erg-esu-cm/Gauss)
       state          XX          YY          ZZ    R(velocity)    E-M Angle
         1        -0.0001     -0.0004     -0.0004     -0.0003       90.00
         2        -0.8495     -4.3427      5.1932      0.0003       90.00
         3        -3.2677    -16.6969     19.9644     -0.0001       90.00
 1/2[<0|r|b>*<b|rxdel|0> + (<0|rxdel|b>*<b|r|0>)*]
 Rotatory Strengths (R) in cgs (10**-40 erg-esu-cm/Gauss)
       state          XX          YY          ZZ     R(length)
         1        -0.0011     -0.0003      0.0000     -0.0005
         2       -95.7315    113.8577    -18.1246      0.0006
         3         7.5654     35.1551    -42.7207     -0.0001
  1/2[<0|del|b>*<b|r|0> + (<0|r|b>*<b|del|0>)*] (Au)
       state          X           Y           Z        Dip. S.   Osc.(frdel)
         1         0.0000      0.0000      0.0000      0.0000      0.0000
         2        -0.2668     -0.0928     -0.0021      0.3618      0.2412
         3        -0.0001     -0.0007     -0.0065      0.0073      0.0048

 Excitation energies and oscillator strengths:
 
 Excited state symmetry could not be determined.
 Excited State   1:      Singlet-?Sym    9.6372 eV  128.65 nm  f=0.0000  <S**2>=0.000
       7 ->  9         0.70122
 This state for optimization and/or second-order correction.
 Total Energy, E(TD-HF/TD-KS) =  -92.8753395786    
 Copying the excited state density for this state as the 1-particle RhoCI density.
 
 Excited state symmetry could not be determined.
 Excited State   2:      Singlet-?Sym   10.8618 eV  114.15 nm  f=0.3998  <S**2>=0.000
       6 -> 13         0.12001
       8 ->  9         0.69744
 
 Excited state symmetry could not be determined.
 Excited State   3:      Singlet-?Sym   11.5922 eV  106.95 nm  f=0.0065  <S**2>=0.000
       6 ->  9         0.70253
 SavETr:  write IOETrn=   770 NScale= 10 NData=  16 NLR=1 NState=    3 LETran=      64.
          IDoAtm=111111
          Differentiating once with respect to electric field.
                with respect to dipole field.
          Differentiating once with respect to nuclear coordinates.
 Keep R1 ints in memory in canonical form, NReq=814275.
          There are     1 degrees of freedom in the 1st order CPHF.  IDoFFX=0 NUNeed=     1.
 LinEq1:  Iter=  0 NonCon=     1 RMS=2.98D-02 Max=1.09D-01 NDo=     1
 AX will form     1 AO Fock derivatives at one time.
 LinEq1:  Iter=  1 NonCon=     1 RMS=6.52D-03 Max=3.58D-02 NDo=     1
 LinEq1:  Iter=  2 NonCon=     1 RMS=1.50D-03 Max=7.19D-03 NDo=     1
 LinEq1:  Iter=  3 NonCon=     1 RMS=2.80D-04 Max=1.04D-03 NDo=     1
 LinEq1:  Iter=  4 NonCon=     1 RMS=1.43D-05 Max=6.28D-05 NDo=     1
 LinEq1:  Iter=  5 NonCon=     1 RMS=6.34D-07 Max=1.96D-06 NDo=     1
 LinEq1:  Iter=  6 NonCon=     1 RMS=4.71D-08 Max=1.64D-07 NDo=     1
 LinEq1:  Iter=  7 NonCon=     1 RMS=2.84D-09 Max=9.04D-09 NDo=     1
 LinEq1:  Iter=  8 NonCon=     1 RMS=1.79D-10 Max=6.14D-10 NDo=     1
 LinEq1:  Iter=  9 NonCon=     0 RMS=1.26D-11 Max=4.17D-11 NDo=     1
 Linear equations converged to 1.000D-10 1.000D-09 after     9 iterations.
 End of Minotr F.D. properties file   721 does not exist.
 End of Minotr F.D. properties file   722 does not exist.
 End of Minotr F.D. properties file   788 does not exist.

 **********************************************************************

            Population analysis using the SCF density.

 **********************************************************************

 Alpha  occ. eigenvalues --  -15.79955 -11.49804  -1.54508  -1.17321  -1.04233
 Alpha  occ. eigenvalues --   -0.95838  -0.84904  -0.77849
 Alpha virt. eigenvalues --   -0.08929   0.28297   0.29840   0.35605   0.53097
 Alpha virt. eigenvalues --    0.55991
          Condensed to atoms (all electrons):
               1          2          3          4          5          6
     1  N    6.133396   0.509151   0.349702   0.349702  -0.020766  -0.020766
     2  C    0.509151   4.579183  -0.032382  -0.032382   0.389096   0.389096
     3  H    0.349702  -0.032382   0.366657  -0.023264  -0.005166   0.002316
     4  H    0.349702  -0.032382  -0.023264   0.366657   0.002316  -0.005166
     5  H   -0.020766   0.389096  -0.005166   0.002316   0.443796  -0.018230
     6  H   -0.020766   0.389096   0.002316  -0.005166  -0.018230   0.443796
 Mulliken charges:
               1
     1  N   -0.300419
     2  C    0.198240
     3  H    0.342136
     4  H    0.342136
     5  H    0.208953
     6  H    0.208953
 Sum of Mulliken charges =   1.00000
 Mulliken charges with hydrogens summed into heavy atoms:
               1
     1  N    0.383853
     2  C    0.616147
 Electronic spatial extent (au):  <R**2>=            846.7729
 Charge=              1.0000 electrons
 Dipole moment (field-independent basis, Debye):
    X=            -16.4234    Y=              6.9516    Z=             -1.1342  Tot=             17.8701
 Quadrupole moment (field-independent basis, Debye-Ang):
   XX=             49.7469   YY=              2.4572   ZZ=            -11.1853
   XY=            -24.6503   XZ=              4.1497   YZ=             -0.3427
 Traceless Quadrupole moment (field-independent basis, Debye-Ang):
   XX=             36.0740   YY=            -11.2157   ZZ=            -24.8582
   XY=            -24.6503   XZ=              4.1497   YZ=             -0.3427
 Octapole moment (field-independent basis, Debye-Ang**2):
  XXX=           -129.8136  YYY=            -16.1241  ZZZ=              8.2183  XYY=            -12.0684
  XXY=             78.3801  XXZ=            -13.7402  XZZ=             37.5115  YZZ=            -16.3832
  YYZ=              3.6180  XYZ=              1.5869
 Hexadecapole moment (field-independent basis, Debye-Ang**3):
 XXXX=            223.3225 YYYY=            -79.3057 ZZZZ=            -13.8117 XXXY=           -213.4881
 XXXZ=             43.8981 YYYX=             48.8732 YYYZ=             14.2395 ZZZX=            -27.1419
 ZZZY=              9.6602 XXYY=             30.7160 XXZZ=           -134.7250 YYZZ=            -30.1085
 XXYZ=             -5.1257 YYXZ=            -12.1710 ZZXY=             57.1881
 N-N= 3.873195585546D+01 E-N=-2.881941068985D+02  KE= 9.155946704556D+01
 Calling FoFJK, ICntrl=  10005127 FMM=F ISym2X=0 I1Cent= 0 IOpClX= 0 NMat=1 NMatS=1 NMatT=0.
 -------------------------------------------------------------------
 Center     Atomic                   Forces (Hartrees/Bohr)
 Number     Number              X              Y              Z
 -------------------------------------------------------------------
      1        7          -0.022008199    0.012980200    0.001964886
      2        6          -0.045943980    0.027097265    0.004101813
      3        1          -0.045940325   -0.009975425   -0.007874990
      4        1          -0.012111321    0.044213691    0.013057666
      5        1           0.035352062   -0.081448851   -0.022734066
      6        1           0.090651763    0.007133120    0.011484690
 -------------------------------------------------------------------
 Cartesian Forces:  Max     0.090651763 RMS     0.037166115

 GradGradGradGradGradGradGradGradGradGradGradGradGradGradGradGradGradGrad
 Berny optimization.
 Search for a local minimum.
 Step number   1 out of a maximum of    2
 All quantities printed in internal units (Hartrees-Bohrs-Radians)
 Second derivative matrix not updated -- first step.
 The second derivative matrix:
                          X1        Y1        Z1        X2        Y2
           X1           1.06683
           Y1          -0.11491   0.90267
           Z1           0.05063   0.21527   0.27500
           X2          -0.55395   0.22657   0.02735   0.96770
           Y2           0.22657  -0.29964  -0.04117  -0.14819   0.77438
           Z2           0.02735  -0.04117  -0.11172   0.03157   0.17599
           X3          -0.39268  -0.13387  -0.07623  -0.00841  -0.01319
           Y3          -0.12553  -0.18897  -0.05211   0.01522   0.02525
           Z3          -0.07353  -0.05295  -0.09159   0.00217   0.00078
           X4          -0.12871   0.00805  -0.00365   0.01752   0.02834
           Y4          -0.00029  -0.43836  -0.12000  -0.00007   0.00076
           Z4          -0.00634  -0.11915  -0.10617  -0.00014  -0.00292
           X5           0.01637   0.02648   0.00845  -0.11349   0.00557
           Y5          -0.00007   0.00071  -0.00542   0.00002  -0.34290
           Z5          -0.00013  -0.00273   0.01657  -0.00544  -0.09093
           X6          -0.00786  -0.01233  -0.00655  -0.30936  -0.09910
           Y6           0.01422   0.02360   0.00342  -0.09355  -0.15785
           Z6           0.00203   0.00073   0.01791  -0.05551  -0.04175
                          Z2        X3        Y3        Z3        X4
           Z2           0.24326
           X3          -0.00701   0.37903
           Y3           0.00366   0.14748   0.16120
           Z3           0.01916   0.08241   0.05547   0.06201
           X4           0.00904   0.02206  -0.03717  -0.01105   0.08913
           Y4          -0.00580  -0.00042   0.00252  -0.00330   0.00078
           Z4           0.01773   0.00082  -0.00702   0.01042   0.00566
           X5          -0.00365  -0.00010  -0.00032   0.00098   0.00010
           Y5          -0.09149  -0.00032  -0.00101   0.00313   0.00032
           Z5          -0.08962   0.00098   0.00313  -0.00970  -0.00098
           X6          -0.05730   0.00010   0.00032  -0.00098  -0.00010
           Y6          -0.04119   0.00032   0.00101  -0.00313  -0.00032
           Z6          -0.07880  -0.00098  -0.00313   0.00970   0.00098
                          Y4        Z4        X5        Y5        Z5
           Y4           0.43508
           Z4           0.12909   0.07802
           X5           0.00032  -0.00098   0.07785
           Y5           0.00101  -0.00313   0.00041   0.33999
           Z5          -0.00313   0.00970   0.00485   0.09980   0.06395
           X6          -0.00032   0.00098   0.01927  -0.00036   0.00072
           Y6          -0.00101   0.00313  -0.03246   0.00220  -0.00613
           Z6           0.00313  -0.00970  -0.00965  -0.00288   0.00910
                          X6        Y6        Z6
           X6           0.29795
           Y6           0.11179   0.13205
           Z6           0.06313   0.04389   0.05179
 ITU=  0
     Eigenvalues ---    0.04336   0.04862   0.10793   0.10998   0.14790
     Eigenvalues ---    0.20524   0.28414   0.35787   0.63918   0.85912
     Eigenvalues ---    1.20927   1.85670
 Quadratic step=6.745D-01 exceeds max=3.000D-01 adjusted using Lamda=-2.108D-01.
 Angle between NR and scaled steps=  17.67 degrees.
 Angle between quadratic step and forces=  23.39 degrees.
 Linear search not attempted -- first point.
 TrRot= -0.015138  0.008928  0.001352 -0.000029  0.000000  0.000029
 Variable       Old X    -DE/DX   Delta X   Delta X   Delta X     New X
                                 (Linear)    (Quad)   (Total)
    X1       -7.40742  -0.02201   0.00000  -0.04910  -0.06424  -7.47166
    Y1        3.29290   0.01298   0.00000   0.02896   0.03789   3.33078
    Z1       -0.36178   0.00196   0.00000   0.00438   0.00574  -0.35604
    X2       -5.30801  -0.04594   0.00000  -0.00692  -0.02205  -5.33006
    Y2        2.05469   0.02710   0.00000   0.00408   0.01301   2.06769
    Z2       -0.54921   0.00410   0.00000   0.00062   0.00197  -0.54724
    X3       -9.04244  -0.04594   0.00000  -0.09772  -0.11285  -9.15529
    Y3        2.45226  -0.00998   0.00000   0.00365   0.01258   2.46484
    Z3       -0.79894  -0.00787   0.00000  -0.00872  -0.00736  -0.80630
    X4       -7.39532  -0.01211   0.00000  -0.04845  -0.06359  -7.45891
    Y4        5.09071   0.04421   0.00000   0.08256   0.09149   5.18220
    Z4        0.22027   0.01306   0.00000   0.02177   0.02312   0.24339
    X5       -5.32095   0.03535   0.00000   0.11238   0.09724  -5.22371
    Y5        0.13103  -0.08145   0.00000  -0.14108  -0.13215  -0.00113
    Z5       -1.17201  -0.02273   0.00000  -0.03420  -0.03285  -1.20485
    X6       -3.55853   0.09065   0.00000   0.18064   0.16550  -3.39303
    Y6        2.95416   0.00713   0.00000  -0.03174  -0.02281   2.93135
    Z6       -0.08145   0.01148   0.00000   0.00804   0.00939  -0.07206
         Item               Value     Threshold  Converged?
 Maximum Force            0.090652     0.000450     NO 
 RMS     Force            0.037166     0.000300     NO 
 Maximum Displacement     0.165499     0.001800     NO 
 RMS     Displacement     0.069979     0.001200     NO 
 Predicted change in Energy=-3.119932D-02
 GradGradGradGradGradGradGradGradGradGradGradGradGradGradGradGradGradGrad

 1\1\GINC-EAM\Force\RTD-FC\STO-3G\C1H4N1(1+)\DULIKAI\05-Jan-2015\0\\# f
 orce td=(nstates=3,root=1,singlet) nosymm geom=connectivity\\ch2nh2\\1
 ,1\N,-3.91983642,1.74252582,-0.19144495\C,-2.80887592,1.08729284,-0.29
 062899\H,-4.78505229,1.29768271,-0.42278042\H,-3.91343348,2.69388816,0
 .11656269\H,-2.81572695,0.06933552,-0.62019835\H,-1.88309494,1.5632749
 5,-0.04309998\\Version=EM64L-G09RevD.01\HF=-93.2295015\RMSD=4.382e-09\
 RMSF=3.717e-02\Dipole=0.3541206,-0.2088563,-0.0316158\PG=C02 [C2(C1N1)
 ,X(H4)]\\@


 THESE ARE THE TIMES THAT TRY MENS SOULS.
 THE SUMMER SOLDIER AND THE SUNSHINE PATRIOT WILL IN THIS CRISIS,
 SHRINK FROM THE SERVICE OF HIS COUNTRY.  BUT HE THAT STANDS NOW,
 DESERVES THE LOVE AND THANKS OF MAN AND WOMAN.
 TYRANNY, LIKE HELL, IS NOT EASILY CONQUERED,
 YET WE HAVE THIS CONSOLATION WITH US,
 THAT THE HARDER THE CONFLICT, THE MORE GLORIOUS THE TRIUMPH.
 WHAT WE OBTAIN TOO CHEAP, WE ESTEEM TOO LIGHTLY, 
 'TIS DEARNESS ONLY THAT GIVES EVERYTHING ITS VALUE.

                                              -- TOM PAINE
 Job cpu time:       0 days  0 hours  0 minutes  1.3 seconds.
 File lengths (MBytes):  RWF=      5 Int=      0 D2E=      0 Chk=      1 Scr=      1
 Normal termination of Gaussian 09 at Mon Jan  5 21:39:11 2015.
