 Entering Gaussian System, Link 0=g09
 Input=dft.gjf
 Output=dft.log
 Initial command:
 /opt//g09/l1.exe /tmp/Gau-8640.inp -scrdir=/tmp/
 Entering Link 1 = /opt//g09/l1.exe PID=      8642.
  
 Copyright (c) 1988,1990,1992,1993,1995,1998,2003,2009, Gaussian, Inc.
                  All Rights Reserved.
  
 This is part of the Gaussian(R) 09 program.  It is based on
 the Gaussian(R) 03 system (copyright 2003, Gaussian, Inc.),
 the Gaussian(R) 98 system (copyright 1998, Gaussian, Inc.),
 the Gaussian(R) 94 system (copyright 1995, Gaussian, Inc.),
 the Gaussian 92(TM) system (copyright 1992, Gaussian, Inc.),
 the Gaussian 90(TM) system (copyright 1990, Gaussian, Inc.),
 the Gaussian 88(TM) system (copyright 1988, Gaussian, Inc.),
 the Gaussian 86(TM) system (copyright 1986, Carnegie Mellon
 University), and the Gaussian 82(TM) system (copyright 1983,
 Carnegie Mellon University). Gaussian is a federally registered
 trademark of Gaussian, Inc.
  
 This software contains proprietary and confidential information,
 including trade secrets, belonging to Gaussian, Inc.
  
 This software is provided under written license and may be
 used, copied, transmitted, or stored only in accord with that
 written license.
  
 The following legend is applicable only to US Government
 contracts under FAR:
  
                    RESTRICTED RIGHTS LEGEND
  
 Use, reproduction and disclosure by the US Government is
 subject to restrictions as set forth in subparagraphs (a)
 and (c) of the Commercial Computer Software - Restricted
 Rights clause in FAR 52.227-19.
  
 Gaussian, Inc.
 340 Quinnipiac St., Bldg. 40, Wallingford CT 06492
  
  
 ---------------------------------------------------------------
 Warning -- This program may not be used in any manner that
 competes with the business of Gaussian, Inc. or will provide
 assistance to any competitor of Gaussian, Inc.  The licensee
 of this program is prohibited from giving any competitor of
 Gaussian, Inc. access to this program.  By using this program,
 the user acknowledges that Gaussian, Inc. is engaged in the
 business of creating and licensing software in the field of
 computational chemistry and represents and warrants to the
 licensee that it is not a competitor of Gaussian, Inc. and that
 it will not use this program in any manner prohibited above.
 ---------------------------------------------------------------
  

 Cite this work as:
 Gaussian 09, Revision A.01,
 M. J. Frisch, G. W. Trucks, H. B. Schlegel, G. E. Scuseria, 
 M. A. Robb, J. R. Cheeseman, G. Scalmani, V. Barone, B. Mennucci, 
 G. A. Petersson, H. Nakatsuji, M. Caricato, X. Li, H. P. Hratchian, 
 A. F. Izmaylov, J. Bloino, G. Zheng, J. L. Sonnenberg, M. Hada, 
 M. Ehara, K. Toyota, R. Fukuda, J. Hasegawa, M. Ishida, T. Nakajima, 
 Y. Honda, O. Kitao, H. Nakai, T. Vreven, J. A. Montgomery, Jr., 
 J. E. Peralta, F. Ogliaro, M. Bearpark, J. J. Heyd, E. Brothers, 
 K. N. Kudin, V. N. Staroverov, R. Kobayashi, J. Normand, 
 K. Raghavachari, A. Rendell, J. C. Burant, S. S. Iyengar, J. Tomasi, 
 M. Cossi, N. Rega, J. M. Millam, M. Klene, J. E. Knox, J. B. Cross, 
 V. Bakken, C. Adamo, J. Jaramillo, R. Gomperts, R. E. Stratmann, 
 O. Yazyev, A. J. Austin, R. Cammi, C. Pomelli, J. W. Ochterski, 
 R. L. Martin, K. Morokuma, V. G. Zakrzewski, G. A. Voth, 
 P. Salvador, J. J. Dannenberg, S. Dapprich, A. D. Daniels, 
 O. Farkas, J. B. Foresman, J. V. Ortiz, J. Cioslowski, 
 and D. J. Fox, Gaussian, Inc., Wallingford CT, 2009.
 
 ******************************************
 Gaussian 09:  EM64L-G09RevA.01  8-May-2009
                 6-Jan-2014 
 ******************************************
 %chk=gaussian.chk
 %mem=1GB
 %nproc=2
 Will use up to    2 processors via shared memory.
 ----------------------------------------------------------------------
 # force lc-blyp/6-31g* scf=(tight,maxcycle=10000) iop(9/40=20) nosymm 
 pop=full
 ----------------------------------------------------------------------
 1/10=7,30=1,38=1/1,3;
 2/12=2,15=1,17=6,18=5,40=1/2;
 3/5=1,6=6,7=1,11=2,16=1,25=1,30=1,71=1,74=1000402/1,2,3;
 4//1;
 5/5=2,7=10000,32=2,38=5/2;
 6/7=3,28=1/1;
 7/29=1,30=1/1,2,3,16;
 1/10=7,30=1/3;
 99//99;
 -------
 [0] [0]
 -------
 Symbolic Z-matrix:
 Charge =  1 Multiplicity = 1
 c                    -5.53382   0.71251   0.40571 
 n                    -1.47572   0.18057   0.11026 
 h                    -6.11873   1.64386   2.28957 
 h                    -6.63709  -0.43417  -1.08593 
 h                    -0.85482  -0.98783  -1.33432 
 h                    -0.40056   0.85489   1.60178 
 

 GradGradGradGradGradGradGradGradGradGradGradGradGradGradGradGradGradGrad
 Berny optimization.
 Initialization pass.
 Trust Radius=3.00D-01 FncErr=1.00D-07 GrdErr=1.00D-07
 Number of steps in this run=   2 maximum allowed number of steps=   2.
 GradGradGradGradGradGradGradGradGradGradGradGradGradGradGradGradGradGrad

                          Input orientation:                          
 ---------------------------------------------------------------------
 Center     Atomic      Atomic             Coordinates (Angstroms)
 Number     Number       Type             X           Y           Z
 ---------------------------------------------------------------------
      1          6           0       -5.533818    0.712513    0.405709
      2          7           0       -1.475722    0.180569    0.110256
      3          1           0       -6.118728    1.643865    2.289570
      4          1           0       -6.637086   -0.434167   -1.085929
      5          1           0       -0.854823   -0.987832   -1.334323
      6          1           0       -0.400556    0.854887    1.601777
 ---------------------------------------------------------------------
                    Distance matrix (angstroms):
                    1          2          3          4          5
     1  C    0.000000
     2  N    4.103462   0.000000
     3  H    2.181391   5.333680   0.000000
     4  H    2.181068   5.333707   3.997612   0.000000
     5  H    5.273697   1.958950   6.911376   5.814018   0.000000
     6  H    5.272687   1.958398   5.813178   6.912288   3.496092
                    6
     6  H    0.000000
 Symmetry turned off by external request.
 Stoichiometry    CH4N(1+)
 Framework group  C1[X(CH4N)]
 Deg. of freedom    12
 Full point group                 C1      NOp   1
 Rotational constants (GHZ):     35.1711040      3.5333219      3.2171951
 Standard basis: 6-31G(d) (6D, 7F)
 Integral buffers will be    131072 words long.
 Raffenetti 2 integral format.
 Two-electron integral symmetry is turned off.
    38 basis functions,    72 primitive gaussians,    38 cartesian basis functions
     8 alpha electrons        8 beta electrons
       nuclear repulsion energy        15.3220538503 Hartrees.
 NAtoms=    6 NActive=    6 NUniq=    6 SFac= 7.50D-01 NAtFMM=   80 NAOKFM=F Big=F
 One-electron integrals computed using PRISM.
 NBasis=    38 RedAO= T  NBF=    38
 NBsUse=    38 1.00D-06 NBFU=    38
 Harris functional with IExCor=10402 diagonalized for initial guess.
 ExpMin= 1.61D-01 ExpMax= 4.17D+03 ExpMxC= 6.27D+02 IAcc=1 IRadAn=         1 AccDes= 0.00D+00
 HarFok:  IExCor=10402 AccDes= 0.00D+00 IRadAn=         1 IDoV= 1
 ScaDFX=  1.000000  1.000000  1.000000  1.000000
 FoFCou: FMM=F IPFlag=           0 FMFlag=      100000 FMFlg1=           0
         NFxFlg=           0 DoJE=T BraDBF=F KetDBF=T FulRan=T
         Omega=  0.000000  0.000000  1.000000  0.000000  0.000000 ICntrl=     500 IOpCl=  0
         NMat0=    1 NMatS0=    1 NMatT0=    0 NMatD0=    1 NMtDS0=    0 NMtDT0=    0
         I1Cent=           4 NGrid=           0.
 Symmetry not used in FoFCou.
 Requested convergence on RMS density matrix=1.00D-08 within**** cycles.
 Requested convergence on MAX density matrix=1.00D-06.
 Requested convergence on             energy=1.00D-06.
 No special actions if energy rises.
 Integral accuracy reduced to 1.0D-05 until final iterations.
 FoFJK:  IHMeth= 1 ICntrl=     0 DoSepK=T KAlg= 1 I1Cent= 0 FoldK=F
 FoFJK:  IHMeth= 1 ICntrl=     0 DoSepK=T KAlg= 1 I1Cent= 0 FoldK=F
 FoFJK:  IHMeth= 1 ICntrl=     0 DoSepK=T KAlg= 1 I1Cent= 0 FoldK=F
 EnCoef did     5 forward-backward iterations
 FoFJK:  IHMeth= 1 ICntrl=     0 DoSepK=T KAlg= 1 I1Cent= 0 FoldK=F
 EnCoef did   100 forward-backward iterations
 FoFJK:  IHMeth= 1 ICntrl=     0 DoSepK=T KAlg= 1 I1Cent= 0 FoldK=F
 FoFJK:  IHMeth= 1 ICntrl=     0 DoSepK=T KAlg= 1 I1Cent= 0 FoldK=F
 FoFJK:  IHMeth= 1 ICntrl=     0 DoSepK=T KAlg= 1 I1Cent= 0 FoldK=F
 FoFJK:  IHMeth= 1 ICntrl=     0 DoSepK=T KAlg= 1 I1Cent= 0 FoldK=F
 FoFJK:  IHMeth= 1 ICntrl=     0 DoSepK=T KAlg= 1 I1Cent= 0 FoldK=F
 FoFJK:  IHMeth= 1 ICntrl=     0 DoSepK=T KAlg= 1 I1Cent= 0 FoldK=F
 FoFJK:  IHMeth= 1 ICntrl=     0 DoSepK=T KAlg= 1 I1Cent= 0 FoldK=F
 FoFJK:  IHMeth= 1 ICntrl=     0 DoSepK=T KAlg= 1 I1Cent= 0 FoldK=F
 FoFJK:  IHMeth= 1 ICntrl=     0 DoSepK=T KAlg= 1 I1Cent= 0 FoldK=F
 FoFJK:  IHMeth= 1 ICntrl=     0 DoSepK=T KAlg= 1 I1Cent= 0 FoldK=F
 FoFJK:  IHMeth= 1 ICntrl=     0 DoSepK=T KAlg= 1 I1Cent= 0 FoldK=F
 FoFJK:  IHMeth= 1 ICntrl=     0 DoSepK=T KAlg= 1 I1Cent= 0 FoldK=F
 FoFJK:  IHMeth= 1 ICntrl=     0 DoSepK=T KAlg= 1 I1Cent= 0 FoldK=F
 FoFJK:  IHMeth= 1 ICntrl=     0 DoSepK=T KAlg= 1 I1Cent= 0 FoldK=F
 FoFJK:  IHMeth= 1 ICntrl=     0 DoSepK=T KAlg= 1 I1Cent= 0 FoldK=F
 Initial convergence to 1.0D-05 achieved.  Increase integral accuracy.
 FoFJK:  IHMeth= 1 ICntrl=     0 DoSepK=T KAlg= 1 I1Cent= 0 FoldK=F
 FoFJK:  IHMeth= 1 ICntrl=     0 DoSepK=T KAlg= 1 I1Cent= 0 FoldK=F
 FoFJK:  IHMeth= 1 ICntrl=     0 DoSepK=T KAlg= 1 I1Cent= 0 FoldK=F
 FoFJK:  IHMeth= 1 ICntrl=     0 DoSepK=T KAlg= 1 I1Cent= 0 FoldK=F
 FoFJK:  IHMeth= 1 ICntrl=     0 DoSepK=T KAlg= 1 I1Cent= 0 FoldK=F
 FoFJK:  IHMeth= 1 ICntrl=     0 DoSepK=T KAlg= 1 I1Cent= 0 FoldK=F
 FoFJK:  IHMeth= 1 ICntrl=     0 DoSepK=T KAlg= 1 I1Cent= 0 FoldK=F
 FoFJK:  IHMeth= 1 ICntrl=     0 DoSepK=T KAlg= 1 I1Cent= 0 FoldK=F
 FoFJK:  IHMeth= 1 ICntrl=     0 DoSepK=T KAlg= 1 I1Cent= 0 FoldK=F
 FoFJK:  IHMeth= 1 ICntrl=     0 DoSepK=T KAlg= 1 I1Cent= 0 FoldK=F
 FoFJK:  IHMeth= 1 ICntrl=     0 DoSepK=T KAlg= 1 I1Cent= 0 FoldK=F
 FoFJK:  IHMeth= 1 ICntrl=     0 DoSepK=T KAlg= 1 I1Cent= 0 FoldK=F
 FoFJK:  IHMeth= 1 ICntrl=     0 DoSepK=T KAlg= 1 I1Cent= 0 FoldK=F
 FoFJK:  IHMeth= 1 ICntrl=     0 DoSepK=T KAlg= 1 I1Cent= 0 FoldK=F
 FoFJK:  IHMeth= 1 ICntrl=     0 DoSepK=T KAlg= 1 I1Cent= 0 FoldK=F
 FoFJK:  IHMeth= 1 ICntrl=     0 DoSepK=T KAlg= 1 I1Cent= 0 FoldK=F
 SCF Done:  E(RLC-B+HF-LYP) =  -93.6557603428     A.U. after   35 cycles
             Convg  =    0.2045D-08             -V/T =  2.0185

 **********************************************************************

            Population analysis using the SCF density.

 **********************************************************************

 Alpha  occ. eigenvalues --  -14.68534 -10.49087  -1.14199  -0.84638  -0.70280
 Alpha  occ. eigenvalues --   -0.66168  -0.51642  -0.45718
 Alpha virt. eigenvalues --   -0.33555  -0.30980  -0.25391  -0.17114  -0.16021
 Alpha virt. eigenvalues --   -0.11387   0.48266   0.50001   0.53841   0.59490
 Alpha virt. eigenvalues --    0.59655   0.61946   0.62625   0.62802   0.69125
 Alpha virt. eigenvalues --    0.69830   0.82950   0.84522   1.58671   1.59686
 Alpha virt. eigenvalues --    1.60037   1.61903   1.62613   1.67041   1.67134
 Alpha virt. eigenvalues --    1.67257   1.69766   1.69791   3.14812   3.77210
     Molecular Orbital Coefficients:
                           1         2         3         4         5
                           O         O         O         O         O
     Eigenvalues --   -14.68534 -10.49087  -1.14199  -0.84638  -0.70280
   1 1   C  1S          0.00000   0.99173  -0.00055  -0.23329   0.00000
   2        2S          0.00000   0.05416   0.00062   0.51551   0.00000
   3        2PX         0.00003  -0.00108   0.00032  -0.01452   0.00002
   4        2PY         0.00000  -0.00009   0.00004  -0.00236   0.00009
   5        2PZ         0.00000   0.00022  -0.00007   0.00367   0.00015
   6        3S         -0.00003  -0.00509   0.00240   0.57359   0.00000
   7        3PX        -0.00005   0.00062   0.00210  -0.00328   0.00019
   8        3PY         0.00001   0.00006  -0.00029  -0.00273   0.00077
   9        3PZ         0.00000  -0.00013  -0.00014   0.00217   0.00124
  10        4XX         0.00001  -0.01251  -0.00015  -0.02425   0.00001
  11        4YY         0.00001  -0.01249  -0.00027  -0.02102   0.00000
  12        4ZZ         0.00001  -0.01254  -0.00030  -0.02157   0.00000
  13        4XY         0.00000  -0.00001  -0.00009  -0.00055   0.00002
  14        4XZ         0.00000   0.00000   0.00003   0.00080   0.00003
  15        4YZ         0.00000  -0.00005   0.00000  -0.00038  -0.00001
  16 2   N  1S          0.99223   0.00000  -0.23051   0.00047   0.00004
  17        2S          0.03683   0.00000   0.52205  -0.00222  -0.00010
  18        2PX         0.00075   0.00001   0.03085  -0.00597   0.06553
  19        2PY        -0.00027  -0.00001  -0.01013  -0.00419   0.26453
  20        2PZ         0.00005   0.00001   0.00160   0.00356   0.42164
  21        3S          0.00422   0.00004   0.56816   0.00092  -0.00012
  22        3PX        -0.00020  -0.00004   0.02632  -0.00711   0.04497
  23        3PY         0.00008   0.00000  -0.00832  -0.00276   0.18158
  24        3PZ        -0.00002   0.00001   0.00117   0.00283   0.28941
  25        4XX        -0.00927  -0.00001  -0.01819  -0.00030   0.00461
  26        4YY        -0.00926  -0.00002  -0.01095  -0.00059  -0.00597
  27        4ZZ        -0.00924  -0.00001  -0.00989  -0.00057   0.00137
  28        4XY         0.00000   0.00000   0.00283   0.00013   0.00994
  29        4XZ         0.00000   0.00000  -0.00025  -0.00013   0.01732
  30        4YZ         0.00002   0.00000   0.00049  -0.00003  -0.00499
  31 3   H  1S          0.00000   0.00001  -0.00012   0.04292   0.00008
  32        2S          0.00000   0.00061  -0.00021   0.05512  -0.00030
  33 4   H  1S          0.00000   0.00001  -0.00012   0.04294  -0.00008
  34        2S          0.00000   0.00061  -0.00020   0.05514   0.00030
  35 5   H  1S          0.00006   0.00000   0.03762  -0.00066  -0.16418
  36        2S         -0.00016   0.00000   0.02962  -0.00047  -0.22412
  37 6   H  1S          0.00006   0.00000   0.03766  -0.00066   0.16435
  38        2S         -0.00016   0.00000   0.02963  -0.00047   0.22430
                           6         7         8         9        10
                           O         O         O         V         V
     Eigenvalues --    -0.66168  -0.51642  -0.45718  -0.33555  -0.30980
   1 1   C  1S         -0.00216  -0.00003  -0.04461  -0.01825   0.00332
   2        2S          0.00749   0.00007   0.12528   0.05252  -0.01172
   3        2PX        -0.00533   0.05171   0.41638   0.11655  -0.01466
   4        2PY        -0.00041   0.20672   0.04164   0.01377  -0.00263
   5        2PZ         0.00107   0.33573  -0.08970  -0.02638   0.00387
   6        3S          0.00057   0.00009   0.12521   0.04646  -0.00474
   7        3PX        -0.01225   0.03790   0.31583   0.08256  -0.00203
   8        3PY         0.00075   0.15153   0.02969   0.01278  -0.00305
   9        3PZ         0.00142   0.24609  -0.06688  -0.02058   0.00219
  10        4XX         0.00020  -0.00346  -0.00712  -0.00343   0.00005
  11        4YY         0.00060  -0.00168   0.00113   0.00093  -0.00068
  12        4ZZ         0.00070   0.00513  -0.00783  -0.00202  -0.00022
  13        4XY         0.00012  -0.00824  -0.00338  -0.00097   0.00012
  14        4XZ         0.00002  -0.01254   0.00111   0.00057  -0.00008
  15        4YZ         0.00009   0.00025  -0.00925  -0.00305   0.00048
  16 2   N  1S          0.03612   0.00000   0.00382  -0.00113   0.04822
  17        2S         -0.10910   0.00000  -0.01536   0.00269  -0.12723
  18        2PX         0.55856  -0.00008  -0.04807   0.17733  -0.32641
  19        2PY        -0.17089  -0.00032  -0.15200   0.49209   0.12280
  20        2PZ         0.02050  -0.00045   0.10284  -0.33630  -0.02605
  21        3S         -0.09152   0.00000  -0.00422   0.00553  -0.19351
  22        3PX         0.37388   0.00010  -0.04816   0.13267  -0.25289
  23        3PY        -0.11434   0.00044  -0.11261   0.37286   0.09427
  24        3PZ         0.01367   0.00076   0.07814  -0.25455  -0.01965
  25        4XX         0.00882  -0.00002  -0.00203   0.00504  -0.00166
  26        4YY        -0.00739   0.00009  -0.00105  -0.00495   0.00395
  27        4ZZ        -0.00251  -0.00008  -0.00151  -0.00099   0.01378
  28        4XY        -0.00714  -0.00003  -0.00160   0.00722   0.00237
  29        4XZ         0.00333  -0.00007   0.00113  -0.00554   0.00245
  30        4YZ         0.00820   0.00006   0.00004   0.00201   0.01154
  31 3   H  1S          0.00220   0.17831  -0.15985  -0.05446   0.00845
  32        2S          0.00339   0.31145  -0.30527  -0.10707   0.01767
  33 4   H  1S          0.00220  -0.17843  -0.15972  -0.05444   0.00845
  34        2S          0.00339  -0.31163  -0.30500  -0.10705   0.01767
  35 5   H  1S          0.12754   0.00066   0.01322  -0.00652   0.24450
  36        2S          0.18890   0.00132   0.02579  -0.01321   0.48653
  37 6   H  1S          0.12736  -0.00066   0.01320  -0.00651   0.24403
  38        2S          0.18862  -0.00131   0.02575  -0.01319   0.48564
                          11        12        13        14        15
                           V         V         V         V         V
     Eigenvalues --    -0.25391  -0.17114  -0.16021  -0.11387   0.48266
   1 1   C  1S          0.00000   0.04859   0.00435   0.00003   0.01337
   2        2S         -0.00001  -0.13570  -0.01041  -0.00006  -0.29156
   3        2PX         0.00013   0.44822  -0.06808   0.06789  -0.79166
   4        2PY         0.00049  -0.00767   0.51001   0.27175   0.35440
   5        2PZ         0.00083  -0.06428  -0.30354   0.44138  -0.09660
   6        3S          0.00000  -0.14668  -0.01684  -0.00010   0.31263
   7        3PX        -0.00015   0.37663  -0.06343   0.05877   0.83487
   8        3PY        -0.00067  -0.00935   0.45073   0.23521  -0.35840
   9        3PZ        -0.00104  -0.05220  -0.26775   0.38202   0.09244
  10        4XX        -0.00001  -0.00212   0.00205   0.00111  -0.02157
  11        4YY         0.00000   0.00511  -0.00035   0.00051  -0.03139
  12        4ZZ         0.00001   0.01282   0.00044  -0.00161  -0.02793
  13        4XY        -0.00003   0.00158  -0.00484   0.00263  -0.00063
  14        4XZ        -0.00005   0.00257   0.00301   0.00401  -0.00036
  15        4YZ         0.00001   0.00882   0.00256  -0.00009   0.00407
  16 2   N  1S          0.00006   0.00010  -0.00013   0.00000   0.00536
  17        2S         -0.00016  -0.00636   0.00231  -0.00001  -0.25039
  18        2PX        -0.06122   0.02533  -0.00641  -0.00039   0.42112
  19        2PY        -0.24683   0.01137  -0.00293  -0.00162   0.00293
  20        2PZ        -0.39346  -0.01106   0.00279  -0.00264  -0.06697
  21        3S         -0.00030   0.01104  -0.00320   0.00001   0.34032
  22        3PX        -0.05123   0.00382   0.00014   0.00011  -0.45968
  23        3PY        -0.20652   0.01107  -0.00016   0.00046   0.00405
  24        3PZ        -0.32921  -0.00754   0.00008   0.00073   0.06853
  25        4XX         0.00109  -0.00088   0.00038  -0.00005  -0.05232
  26        4YY        -0.00108  -0.00294   0.00085  -0.00012  -0.06127
  27        4ZZ         0.00001  -0.00283   0.00085   0.00016  -0.06100
  28        4XY         0.00239   0.00017  -0.00009  -0.00014  -0.00168
  29        4XZ         0.00405  -0.00047   0.00015  -0.00018  -0.00044
  30        4YZ        -0.00098   0.00001   0.00006  -0.00005   0.00068
  31 3   H  1S          0.00052   0.18107   0.01952  -0.18193  -0.03238
  32        2S          0.00168   0.42577   0.04687  -0.46684   0.06784
  33 4   H  1S         -0.00051   0.18097   0.01951   0.18204  -0.03240
  34        2S         -0.00166   0.42555   0.04685   0.46719   0.06788
  35 5   H  1S         -0.23065  -0.00360   0.00073  -0.00020  -0.07981
  36        2S         -0.49074  -0.00623   0.00121  -0.00003   0.08360
  37 6   H  1S          0.23111  -0.00360   0.00074   0.00020  -0.07985
  38        2S          0.49181  -0.00623   0.00123   0.00003   0.08368
                          16        17        18        19        20
                           V         V         V         V         V
     Eigenvalues --     0.50001   0.53841   0.59490   0.59655   0.61946
   1 1   C  1S          0.00792   0.00029  -0.00541   0.00002  -0.01283
   2        2S         -0.16313  -0.00030   0.27737  -0.00035   0.43135
   3        2PX        -0.26668  -0.07386  -0.58728  -0.13543  -0.10781
   4        2PY        -0.82457   0.10783   0.02307  -0.54098  -0.00938
   5        2PZ         0.54857  -0.05393   0.07718  -0.87912   0.02086
   6        3S          0.16960  -0.00216  -0.35479   0.00030  -0.50622
   7        3PX         0.29471   0.08089   0.68303   0.17222   0.13216
   8        3PY         0.85689  -0.11513  -0.02273   0.68803   0.01165
   9        3PZ        -0.57276   0.05709  -0.09238   1.11800  -0.02555
  10        4XX        -0.01321   0.00023   0.01843   0.00575   0.02736
  11        4YY        -0.01641  -0.00037   0.01836   0.00260   0.02965
  12        4ZZ        -0.01340   0.00002   0.02460  -0.00841   0.03241
  13        4XY         0.00446  -0.00015   0.00186   0.01374   0.00058
  14        4XZ        -0.00266   0.00007   0.00058   0.02095   0.00090
  15        4YZ         0.00194   0.00048   0.00676  -0.00052   0.00317
  16 2   N  1S          0.00212   0.00126  -0.01470  -0.00002   0.01465
  17        2S         -0.09098  -0.04460   0.40385   0.00037  -0.84874
  18        2PX         0.13589  -0.14933  -0.59098  -0.02543  -0.43890
  19        2PY        -0.09749  -0.79443   0.13010  -0.10124   0.12823
  20        2PZ         0.03975   0.52181   0.00908  -0.15990  -0.00811
  21        3S          0.12108   0.05614  -0.46188  -0.00036   1.16197
  22        3PX        -0.15248   0.15718   0.72834   0.03539   0.49818
  23        3PY         0.10657   0.86976  -0.16450   0.14104  -0.14663
  24        3PZ        -0.04278  -0.57034  -0.00844   0.22316   0.00878
  25        4XX        -0.01911  -0.00957   0.07717  -0.00105  -0.15137
  26        4YY        -0.02158  -0.01043   0.07531   0.00118  -0.15740
  27        4ZZ        -0.02159  -0.01033   0.07618   0.00007  -0.17486
  28        4XY        -0.00120  -0.00028   0.00038  -0.00245  -0.00152
  29        4XZ         0.00034   0.00006  -0.00033  -0.00417  -0.00540
  30        4YZ         0.00035   0.00020   0.00088   0.00103  -0.02139
  31 3   H  1S         -0.01928  -0.00100   0.02586   0.01273   0.05704
  32        2S          0.05211   0.00731   0.10439  -0.37354   0.03395
  33 4   H  1S         -0.01929  -0.00094   0.02582  -0.01304   0.05699
  34        2S          0.05215   0.00664   0.10380   0.37393   0.03491
  35 5   H  1S         -0.03299  -0.02236   0.32093  -0.06492  -0.46563
  36        2S          0.03697   0.02701  -0.32946   0.13574   0.18724
  37 6   H  1S         -0.03292  -0.02241   0.32142   0.06574  -0.46791
  38        2S          0.03667   0.02714  -0.33045  -0.13657   0.19216
                          21        22        23        24        25
                           V         V         V         V         V
     Eigenvalues --     0.62625   0.62802   0.69125   0.69830   0.82950
   1 1   C  1S         -0.00011   0.04071   0.00000  -0.00407  -0.00001
   2        2S          0.00350  -1.32794   0.00004   0.10779  -0.00013
   3        2PX         0.02868   0.09365  -0.00580   0.09292  -0.00358
   4        2PY         0.11498   0.03015  -0.02315  -0.01101  -0.01418
   5        2PZ         0.18640  -0.03210  -0.03733  -0.00754  -0.02302
   6        3S         -0.00403   1.54262  -0.00006  -0.11521   0.00038
   7        3PX        -0.03690  -0.12442   0.00761  -0.11348  -0.03225
   8        3PY        -0.14805  -0.03642   0.03040   0.01259  -0.12915
   9        3PZ        -0.24007   0.04036   0.04906   0.00974  -0.20977
  10        4XX        -0.00100  -0.08443   0.00025   0.00585  -0.00649
  11        4YY        -0.00039  -0.08962   0.00015   0.00597  -0.00341
  12        4ZZ         0.00210  -0.09593  -0.00040   0.00526   0.00985
  13        4XY        -0.00292  -0.00088   0.00060  -0.00041  -0.01547
  14        4XZ        -0.00444  -0.00228   0.00091   0.00009  -0.02345
  15        4YZ         0.00009  -0.00737   0.00000  -0.00070   0.00032
  16 2   N  1S          0.00006  -0.00174  -0.00001  -0.01673   0.00000
  17        2S         -0.00403  -0.18387   0.00100  -0.85536   0.00001
  18        2PX        -0.10428  -0.37847   0.07003   0.04576  -0.00068
  19        2PY        -0.41953   0.08006   0.28177  -0.01028  -0.00270
  20        2PZ        -0.66920   0.00729   0.44924  -0.00007  -0.00434
  21        3S          0.00569   0.31086  -0.00136   1.56581  -0.00001
  22        3PX         0.15514   0.46340  -0.06307   0.07550   0.00096
  23        3PY         0.62524  -0.09904  -0.25311  -0.02521   0.00380
  24        3PZ         0.99710  -0.00782  -0.40363   0.00338   0.00610
  25        4XX        -0.00424  -0.03389   0.00609  -0.18040   0.00000
  26        4YY         0.00343  -0.03762  -0.00695  -0.18303   0.00005
  27        4ZZ        -0.00149  -0.04357   0.00145  -0.18558  -0.00005
  28        4XY        -0.00760  -0.00042   0.01285  -0.00120   0.00000
  29        4XZ        -0.01312  -0.00225   0.02221  -0.00039  -0.00002
  30        4YZ         0.00354  -0.00735  -0.00604  -0.00284   0.00003
  31 3   H  1S          0.00159  -0.18846  -0.00234   0.02648  -0.92223
  32        2S          0.07753  -0.05881  -0.01411  -0.02063   0.89161
  33 4   H  1S         -0.00055  -0.18832   0.00235   0.02648   0.92338
  34        2S         -0.07739  -0.05954   0.01415  -0.02061  -0.89278
  35 5   H  1S         -0.46715  -0.00483  -0.78525   0.71391   0.00052
  36        2S          0.77023  -0.10392   0.59340  -0.87367   0.00163
  37 6   H  1S          0.46348  -0.00304   0.78624   0.71343  -0.00053
  38        2S         -0.76891  -0.10648  -0.59372  -0.87302  -0.00162
                          26        27        28        29        30
                           V         V         V         V         V
     Eigenvalues --     0.84522   1.58671   1.59686   1.60037   1.61903
   1 1   C  1S          0.01519   0.00000  -0.00010  -0.00001  -0.00031
   2        2S          0.42525   0.00000   0.00144   0.00221   0.00622
   3        2PX        -0.00329   0.00004   0.00235   0.00186   0.00700
   4        2PY        -0.00093   0.00017   0.00000  -0.00107  -0.00066
   5        2PZ         0.00122   0.00027  -0.00036   0.00038  -0.00067
   6        3S         -0.77565   0.00000  -0.00095  -0.00238  -0.00491
   7        3PX         0.12271  -0.00009  -0.00308  -0.00403  -0.01018
   8        3PY         0.01630  -0.00036  -0.00002   0.00142   0.00096
   9        3PZ        -0.02924  -0.00058   0.00050  -0.00027   0.00098
  10        4XX         0.02327   0.00024  -0.00153   0.00439   0.00106
  11        4YY         0.03010   0.00001   0.00061  -0.00257  -0.00113
  12        4ZZ         0.06251  -0.00025   0.00038  -0.00247  -0.00213
  13        4XY         0.00736   0.00058   0.00209  -0.00020  -0.00055
  14        4XZ         0.00593   0.00088  -0.00107  -0.00113  -0.00033
  15        4YZ         0.03616  -0.00008  -0.00094  -0.00001  -0.00106
  16 2   N  1S          0.00026   0.00000  -0.00158  -0.00002  -0.00486
  17        2S         -0.01857   0.00001  -0.04941  -0.00236   0.07257
  18        2PX         0.01873   0.00002  -0.02259  -0.00225   0.00824
  19        2PY        -0.00262   0.00007   0.00657  -0.00578  -0.00221
  20        2PZ        -0.00126   0.00010  -0.00065   0.00397   0.00007
  21        3S          0.02646   0.00000   0.08997   0.00376  -0.07201
  22        3PX        -0.02329  -0.00018   0.03403  -0.00022  -0.03853
  23        3PY         0.00302  -0.00072  -0.00980  -0.00461   0.01117
  24        3PZ         0.00172  -0.00117   0.00092   0.00294  -0.00096
  25        4XX        -0.00313  -0.05865   0.32535   0.45214   0.78919
  26        4YY        -0.00232  -0.72957  -0.43099  -0.42020  -0.20465
  27        4ZZ        -0.00223   0.78820   0.10070  -0.03183  -0.61559
  28        4XY         0.00004  -0.24104  -0.36512   0.67153  -0.37331
  29        4XZ         0.00015  -0.14759   0.27050  -0.49927  -0.05658
  30        4YZ         0.00012  -0.38575   0.77226   0.21204  -0.40559
  31 3   H  1S         -0.90169  -0.00008  -0.00004  -0.00009  -0.00023
  32        2S          0.91308   0.00048  -0.00031   0.00035  -0.00029
  33 4   H  1S         -0.90055   0.00008  -0.00004  -0.00008  -0.00024
  34        2S          0.91195  -0.00048  -0.00030   0.00034  -0.00029
  35 5   H  1S          0.00502   0.00030   0.01189   0.00056  -0.01098
  36        2S         -0.00496  -0.00123  -0.07545  -0.00310   0.06747
  37 6   H  1S          0.00503  -0.00030   0.01174   0.00055  -0.01083
  38        2S         -0.00497   0.00123  -0.07539  -0.00313   0.06723
                          31        32        33        34        35
                           V         V         V         V         V
     Eigenvalues --     1.62613   1.67041   1.67134   1.67257   1.69766
   1 1   C  1S          0.00000   0.00000   0.00002  -0.00263  -0.00101
   2        2S         -0.00001   0.00001  -0.00030  -0.01221  -0.08514
   3        2PX        -0.00007  -0.00001  -0.00194   0.01556   0.01173
   4        2PY        -0.00024   0.00006   0.00751   0.00205   0.00121
   5        2PZ        -0.00038   0.00011  -0.00434  -0.00364  -0.00346
   6        3S          0.00001  -0.00005   0.00023   0.03972   0.12170
   7        3PX         0.00011  -0.00006   0.00065  -0.01729  -0.04079
   8        3PY         0.00040  -0.00032  -0.00164  -0.00255  -0.00449
   9        3PZ         0.00063  -0.00053   0.00094   0.00419   0.01087
  10        4XX         0.00016  -0.04786  -0.34247   0.68649  -0.59725
  11        4YY         0.00000   0.76306   0.16297  -0.62036   0.00908
  12        4ZZ        -0.00016  -0.71518   0.17956  -0.07599   0.60039
  13        4XY         0.00038  -0.00076   0.79823   0.29721   0.06688
  14        4XZ         0.00060  -0.23975  -0.43234  -0.27649   0.22330
  15        4YZ        -0.00005   0.46025  -0.24176   0.51099   0.68694
  16 2   N  1S          0.00001   0.00000   0.00009  -0.00014   0.00017
  17        2S         -0.00010   0.00000  -0.00088   0.00103  -0.00162
  18        2PX        -0.00766  -0.00001   0.00116  -0.00130   0.00163
  19        2PY        -0.03095  -0.00006  -0.00018   0.00078  -0.00081
  20        2PZ        -0.04933  -0.00009  -0.00006  -0.00029   0.00026
  21        3S          0.00008   0.00000   0.00042  -0.00025   0.00080
  22        3PX         0.01327   0.00002  -0.00196   0.00233  -0.00300
  23        3PY         0.05355   0.00010  -0.00011  -0.00018   0.00024
  24        3PZ         0.08535   0.00016   0.00036  -0.00025   0.00031
  25        4XX         0.21551   0.00001   0.00037  -0.00206   0.00345
  26        4YY        -0.26412  -0.00013   0.00076   0.00101  -0.00134
  27        4ZZ         0.04867   0.00011  -0.00056   0.00015  -0.00104
  28        4XY         0.46876   0.00001   0.00162  -0.00232   0.00123
  29        4XZ         0.81098   0.00005  -0.00142   0.00188  -0.00164
  30        4YZ        -0.22545  -0.00007  -0.00218  -0.00012  -0.00026
  31 3   H  1S          0.00008  -0.00086   0.00000   0.02625   0.07505
  32        2S         -0.00028   0.00137   0.00003  -0.04871  -0.13593
  33 4   H  1S         -0.00008   0.00079  -0.00003   0.02626   0.07313
  34        2S          0.00028  -0.00124   0.00009  -0.04876  -0.13203
  35 5   H  1S         -0.01126  -0.00001  -0.00001  -0.00004   0.00002
  36        2S          0.10290   0.00007   0.00039  -0.00033   0.00042
  37 6   H  1S          0.01110   0.00001  -0.00001  -0.00004   0.00002
  38        2S         -0.10294  -0.00007   0.00039  -0.00033   0.00042
                          36        37        38
                           V         V         V
     Eigenvalues --     1.69791   3.14812   3.77210
   1 1   C  1S         -0.00001  -0.00674  -0.43905
   2        2S         -0.00132   0.06148   3.19458
   3        2PX         0.00684   0.01546   0.01572
   4        2PY         0.02671  -0.00192   0.00191
   5        2PZ         0.04330  -0.00119  -0.00358
   6        3S          0.00188  -0.00332   0.81500
   7        3PX        -0.01399  -0.02538  -0.03757
   8        3PY        -0.05361   0.00309  -0.00482
   9        3PZ        -0.08681   0.00199   0.00871
  10        4XX         0.20882  -0.02729  -1.76080
  11        4YY         0.10304  -0.02599  -1.75510
  12        4ZZ        -0.31167  -0.02567  -1.74620
  13        4XY         0.52070   0.00023   0.00157
  14        4XZ         0.79477   0.00018   0.00265
  15        4YZ        -0.00730   0.00033   0.01020
  16 2   N  1S          0.00000  -0.40523   0.00758
  17        2S         -0.00003   1.44694  -0.02071
  18        2PX        -0.00001  -0.02477  -0.00678
  19        2PY        -0.00017   0.00750   0.00080
  20        2PZ        -0.00025  -0.00090   0.00055
  21        3S          0.00001   1.63377  -0.03941
  22        3PX         0.00002   0.06532   0.01163
  23        3PY         0.00028  -0.01936  -0.00136
  24        3PZ         0.00045   0.00212  -0.00095
  25        4XX        -0.00004  -1.34582   0.02480
  26        4YY         0.00096  -1.33413   0.02599
  27        4ZZ        -0.00091  -1.31401   0.02579
  28        4XY        -0.00006   0.00384   0.00017
  29        4XZ        -0.00046   0.00576   0.00005
  30        4YZ         0.00059   0.02398  -0.00027
  31 3   H  1S         -0.06043  -0.00008   0.01133
  32        2S          0.12585  -0.00215  -0.09164
  33 4   H  1S          0.06265  -0.00008   0.01130
  34        2S         -0.12993  -0.00216  -0.09165
  35 5   H  1S          0.00005   0.00471  -0.00015
  36        2S          0.00008  -0.14022   0.00191
  37 6   H  1S         -0.00005   0.00467  -0.00015
  38        2S         -0.00007  -0.14028   0.00191
     Density Matrix:
                           1         2         3         4         5
   1 1   C  1S          2.07991
   2        2S         -0.14431   0.56887
   3        2PX        -0.03249   0.08917   0.35258
   4        2PY        -0.00281   0.00801   0.05613   0.08895
   5        2PZ         0.00671  -0.01860  -0.04010   0.13132   0.24156
   6        3S         -0.28889   0.62221   0.08763   0.00776  -0.01820
   7        3PX        -0.02537   0.07565   0.26715   0.04199  -0.03126
   8        3PY        -0.00127   0.00467   0.04047   0.06513   0.09640
   9        3PZ         0.00467  -0.01448  -0.03033   0.09617   0.17726
  10        4XX        -0.01286  -0.02814  -0.00556  -0.00191  -0.00123
  11        4YY        -0.01508  -0.02273   0.00140  -0.00050  -0.00149
  12        4ZZ        -0.01412  -0.02555  -0.00534   0.00157   0.00468
  13        4XY         0.00053  -0.00141  -0.00365  -0.00369  -0.00493
  14        4XZ        -0.00048   0.00110  -0.00039  -0.00510  -0.00861
  15        4YZ         0.00090  -0.00271  -0.00767  -0.00067   0.00182
  16 2   N  1S         -0.00046   0.00170   0.00270   0.00026  -0.00058
  17        2S          0.00229  -0.00713  -0.01123  -0.00114   0.00243
  18        2PX         0.00466  -0.00979  -0.04580  -0.00445   0.00973
  19        2PY         0.01623  -0.04498  -0.12467  -0.01258   0.02674
  20        2PZ        -0.01091   0.02975   0.08530   0.00842  -0.01855
  21        3S         -0.00021  -0.00077  -0.00221  -0.00024   0.00049
  22        3PX         0.00589  -0.01376  -0.04385  -0.00423   0.00947
  23        3PY         0.01183  -0.03278  -0.09243  -0.00906   0.02029
  24        3PZ        -0.00834   0.02271   0.06494   0.00685  -0.01338
  25        4XX         0.00028  -0.00071  -0.00179  -0.00018   0.00037
  26        4YY         0.00038  -0.00100  -0.00078  -0.00004   0.00023
  27        4ZZ         0.00039  -0.00101  -0.00123  -0.00015   0.00021
  28        4XY         0.00011  -0.00037  -0.00126  -0.00014   0.00026
  29        4XZ        -0.00006   0.00019   0.00090   0.00007  -0.00024
  30        4YZ        -0.00003   0.00010  -0.00005   0.00002   0.00005
  31 3   H  1S         -0.00576   0.00425  -0.11595   0.06020   0.14872
  32        2S          0.00269  -0.01950  -0.22365   0.10308   0.26431
  33 4   H  1S         -0.00576   0.00426  -0.15273  -0.08727  -0.09083
  34        2S          0.00269  -0.01950  -0.28786  -0.15450  -0.15412
  35 5   H  1S         -0.00146   0.00458   0.00975   0.00125  -0.00172
  36        2S         -0.00292   0.00884   0.01962   0.00250  -0.00341
  37 6   H  1S         -0.00146   0.00458   0.00962   0.00076  -0.00250
  38        2S         -0.00292   0.00883   0.01934   0.00150  -0.00504
                           6         7         8         9        10
   6        3S          0.68943
   7        3PX         0.07533   0.20269
   8        3PY         0.00433   0.03024   0.04770
   9        3PZ        -0.01421  -0.02364   0.07060   0.13009
  10        4XX        -0.02948  -0.00462  -0.00134  -0.00085   0.00161
  11        4YY        -0.02370   0.00070  -0.00033  -0.00106   0.00133
  12        4ZZ        -0.02658  -0.00445   0.00121   0.00348   0.00144
  13        4XY        -0.00148  -0.00276  -0.00270  -0.00361   0.00013
  14        4XZ         0.00119  -0.00025  -0.00374  -0.00632   0.00003
  15        4YZ        -0.00275  -0.00582  -0.00047   0.00136   0.00015
  16 2   N  1S          0.00037   0.00046   0.00042  -0.00033   0.00003
  17        2S         -0.00401  -0.00482  -0.00137   0.00159   0.00012
  18        2PX        -0.01810  -0.04385  -0.00193   0.00811   0.00119
  19        2PY        -0.04312  -0.09177  -0.00894   0.02033   0.00231
  20        2PZ         0.02986   0.06457   0.00663  -0.01286  -0.00162
  21        3S          0.00262   0.00196  -0.00072   0.00015  -0.00020
  22        3PX        -0.01966  -0.03939  -0.00218   0.00763   0.00117
  23        3PY        -0.03154  -0.06825  -0.00643   0.01539   0.00170
  24        3PZ         0.02284   0.04918   0.00532  -0.00931  -0.00125
  25        4XX        -0.00093  -0.00157  -0.00009   0.00030   0.00005
  26        4YY        -0.00100  -0.00052  -0.00005   0.00015   0.00004
  27        4ZZ        -0.00108  -0.00093  -0.00011   0.00016   0.00005
  28        4XY        -0.00025  -0.00083  -0.00010   0.00021   0.00001
  29        4XZ         0.00013   0.00063   0.00008  -0.00013  -0.00001
  30        4YZ        -0.00001  -0.00017   0.00002   0.00003   0.00000
  31 3   H  1S          0.00923  -0.08779   0.04431   0.10933  -0.00104
  32        2S         -0.01317  -0.16967   0.07596   0.19437  -0.00049
  33 4   H  1S          0.00923  -0.11475  -0.06379  -0.06626   0.00143
  34        2S         -0.01319  -0.21672  -0.11285  -0.11233   0.00381
  35 5   H  1S          0.00288   0.00538   0.00090  -0.00150  -0.00012
  36        2S          0.00627   0.01181   0.00185  -0.00283  -0.00029
  37 6   H  1S          0.00287   0.00539   0.00101  -0.00133  -0.00011
  38        2S          0.00626   0.01176   0.00175  -0.00301  -0.00027
                          11        12        13        14        15
  11        4YY         0.00120
  12        4ZZ         0.00119   0.00142
  13        4XY         0.00004  -0.00001   0.00016
  14        4XZ         0.00001  -0.00018   0.00020   0.00032
  15        4YZ         0.00000   0.00016   0.00006  -0.00003   0.00017
  16 2   N  1S          0.00018   0.00013   0.00002   0.00000  -0.00007
  17        2S         -0.00036  -0.00013  -0.00001  -0.00001   0.00027
  18        2PX         0.00080   0.00178   0.00046  -0.00008   0.00099
  19        2PY        -0.00037   0.00232   0.00101  -0.00033   0.00278
  20        2PZ         0.00010  -0.00174  -0.00067   0.00027  -0.00191
  21        3S         -0.00047  -0.00044  -0.00010   0.00002   0.00006
  22        3PX         0.00063   0.00157   0.00042  -0.00010   0.00096
  23        3PY        -0.00028   0.00173   0.00074  -0.00026   0.00206
  24        3PZ         0.00007  -0.00132  -0.00053   0.00018  -0.00145
  25        4XX         0.00003   0.00007   0.00002  -0.00001   0.00004
  26        4YY         0.00002   0.00004   0.00001  -0.00001   0.00002
  27        4ZZ         0.00002   0.00005   0.00001   0.00000   0.00003
  28        4XY        -0.00002   0.00001   0.00001   0.00000   0.00003
  29        4XZ         0.00001  -0.00001   0.00000   0.00001  -0.00002
  30        4YZ         0.00001   0.00001   0.00000   0.00000   0.00000
  31 3   H  1S         -0.00276   0.00248  -0.00191  -0.00476   0.00301
  32        2S         -0.00406   0.00558  -0.00313  -0.00840   0.00576
  33 4   H  1S         -0.00157  -0.00118   0.00397   0.00419   0.00284
  34        2S         -0.00197  -0.00081   0.00714   0.00722   0.00545
  35 5   H  1S          0.00019  -0.00001  -0.00008   0.00001  -0.00022
  36        2S          0.00029  -0.00012  -0.00016   0.00002  -0.00044
  37 6   H  1S          0.00019  -0.00003  -0.00005   0.00006  -0.00022
  38        2S          0.00029  -0.00015  -0.00010   0.00011  -0.00045
                          16        17        18        19        20
  16 2   N  1S          2.07795
  17        2S         -0.17559   0.57208
  18        2PX         0.02725  -0.08813   0.63918
  19        2PY        -0.00935   0.03133  -0.14220   0.24481
  20        2PZ         0.00166  -0.00605   0.06833   0.18474   0.37758
  21        3S         -0.26019   0.61362  -0.06680   0.02098  -0.00289
  22        3PX         0.01410  -0.05262   0.42990  -0.08983   0.04338
  23        3PY        -0.00512   0.01970  -0.09358   0.16957   0.12522
  24        3PZ         0.00104  -0.00423   0.04572   0.12464   0.26071
  25        4XX        -0.00938  -0.02154   0.00952   0.00042   0.00377
  26        4YY        -0.01386  -0.01046  -0.00962  -0.00008  -0.00559
  27        4ZZ        -0.01397  -0.01042  -0.00309   0.00225   0.00070
  28        4XY        -0.00182   0.00456  -0.00635   0.00813   0.00777
  29        4XZ         0.00037  -0.00102   0.00586   0.00769   0.01497
  30        4YZ         0.00040  -0.00127   0.00853  -0.00546  -0.00386
  31 3   H  1S         -0.00097   0.00411   0.01728   0.04742  -0.03258
  32        2S         -0.00194   0.00817   0.03237   0.09083  -0.06279
  33 4   H  1S         -0.00097   0.00411   0.01731   0.04752  -0.03237
  34        2S         -0.00194   0.00817   0.03252   0.09146  -0.06168
  35 5   H  1S         -0.00792   0.01109   0.12201  -0.13523  -0.13039
  36        2S         -0.00015  -0.01105   0.18101  -0.19157  -0.17585
  37 6   H  1S         -0.00793   0.01110   0.16489   0.03865   0.14665
  38        2S         -0.00015  -0.01107   0.23947   0.04578   0.20227
                          21        22        23        24        25
  21        3S          0.66243
  22        3PX        -0.03815   0.28974
  23        3PY         0.01237  -0.05872   0.11760
  24        3PZ        -0.00190   0.02874   0.08434   0.18012
  25        4XX        -0.02235   0.00626   0.00042   0.00255   0.00104
  26        4YY        -0.01116  -0.00652  -0.00006  -0.00385   0.00039
  27        4ZZ        -0.01085  -0.00211   0.00157   0.00046   0.00051
  28        4XY         0.00454  -0.00414   0.00556   0.00531  -0.00013
  29        4XZ        -0.00090   0.00392   0.00528   0.01029   0.00022
  30        4YZ        -0.00094   0.00570  -0.00370  -0.00266   0.00008
  31 3   H  1S          0.00089   0.01647   0.03545  -0.02436   0.00066
  32        2S          0.00182   0.03118   0.06784  -0.04701   0.00126
  33 4   H  1S          0.00089   0.01636   0.03505  -0.02497   0.00067
  34        2S          0.00183   0.03108   0.06745  -0.04756   0.00129
  35 5   H  1S          0.01934   0.08132  -0.09239  -0.08940  -0.00069
  36        2S         -0.00108   0.12018  -0.13088  -0.12046   0.00009
  37 6   H  1S          0.01933   0.11074   0.02697   0.10076   0.00234
  38        2S         -0.00113   0.16030   0.03203   0.13907   0.00422
                          26        27        28        29        30
  26        4YY         0.00059
  27        4ZZ         0.00041   0.00039
  28        4XY        -0.00007   0.00001   0.00032
  29        4XZ        -0.00025   0.00003   0.00029   0.00062
  30        4YZ        -0.00007  -0.00006  -0.00021  -0.00012   0.00018
  31 3   H  1S          0.00029   0.00040   0.00048  -0.00038   0.00004
  32        2S          0.00059   0.00080   0.00092  -0.00074   0.00007
  33 4   H  1S          0.00022   0.00045   0.00050  -0.00034   0.00000
  34        2S          0.00047   0.00089   0.00097  -0.00063  -0.00001
  35 5   H  1S         -0.00078  -0.00187  -0.00491  -0.00483   0.00377
  36        2S         -0.00081  -0.00222  -0.00707  -0.00646   0.00536
  37 6   H  1S         -0.00470  -0.00097   0.00162   0.00655   0.00049
  38        2S         -0.00617  -0.00099   0.00185   0.00907   0.00089
                          31        32        33        34        35
  31 3   H  1S          0.11838
  32        2S          0.21341   0.38649
  33 4   H  1S         -0.00887  -0.00888   0.11839
  34        2S         -0.00887  -0.00179   0.21338   0.38638
  35 5   H  1S         -0.00352  -0.00679  -0.00394  -0.00780   0.08963
  36        2S         -0.00703  -0.01357  -0.00789  -0.01547   0.12469
  37 6   H  1S         -0.00393  -0.00779  -0.00352  -0.00677  -0.01830
  38        2S         -0.00788  -0.01546  -0.00701  -0.01354  -0.02263
                          36        37        38
  36        2S          0.17492
  37 6   H  1S         -0.02264   0.08965
  38        2S         -0.02620   0.12469   0.17486
    Full Mulliken population analysis:
                           1         2         3         4         5
   1 1   C  1S          2.07991
   2        2S         -0.03161   0.56887
   3        2PX         0.00000   0.00000   0.35258
   4        2PY         0.00000   0.00000   0.00000   0.08895
   5        2PZ         0.00000   0.00000   0.00000   0.00000   0.24156
   6        3S         -0.05323   0.50541   0.00000   0.00000   0.00000
   7        3PX         0.00000   0.00000   0.15221   0.00000   0.00000
   8        3PY         0.00000   0.00000   0.00000   0.03711   0.00000
   9        3PZ         0.00000   0.00000   0.00000   0.00000   0.10100
  10        4XX        -0.00102  -0.01999   0.00000   0.00000   0.00000
  11        4YY        -0.00119  -0.01614   0.00000   0.00000   0.00000
  12        4ZZ        -0.00112  -0.01814   0.00000   0.00000   0.00000
  13        4XY         0.00000   0.00000   0.00000   0.00000   0.00000
  14        4XZ         0.00000   0.00000   0.00000   0.00000   0.00000
  15        4YZ         0.00000   0.00000   0.00000   0.00000   0.00000
  16 2   N  1S          0.00000   0.00000   0.00000   0.00000   0.00000
  17        2S          0.00000   0.00000   0.00000   0.00000   0.00000
  18        2PX         0.00000   0.00000   0.00000   0.00000   0.00000
  19        2PY         0.00000   0.00000   0.00000   0.00000   0.00000
  20        2PZ         0.00000   0.00000   0.00000   0.00000   0.00000
  21        3S          0.00000   0.00000   0.00000   0.00000   0.00000
  22        3PX         0.00000   0.00001   0.00004   0.00000   0.00000
  23        3PY         0.00000   0.00000  -0.00001   0.00000   0.00000
  24        3PZ         0.00000   0.00000   0.00001   0.00000   0.00000
  25        4XX         0.00000   0.00000   0.00000   0.00000   0.00000
  26        4YY         0.00000   0.00000   0.00000   0.00000   0.00000
  27        4ZZ         0.00000   0.00000   0.00000   0.00000   0.00000
  28        4XY         0.00000   0.00000   0.00000   0.00000   0.00000
  29        4XZ         0.00000   0.00000   0.00000   0.00000   0.00000
  30        4YZ         0.00000   0.00000   0.00000   0.00000   0.00000
  31 3   H  1S          0.00000   0.00003   0.00043   0.00035   0.00177
  32        2S          0.00003  -0.00195   0.00632   0.00464   0.02407
  33 4   H  1S          0.00000   0.00003   0.00107   0.00063   0.00086
  34        2S          0.00003  -0.00195   0.01536   0.00857   0.01112
  35 5   H  1S          0.00000   0.00000   0.00000   0.00000   0.00000
  36        2S          0.00000   0.00000   0.00000   0.00000   0.00000
  37 6   H  1S          0.00000   0.00000   0.00000   0.00000   0.00000
  38        2S          0.00000   0.00000   0.00000   0.00000   0.00000
                           6         7         8         9        10
   6        3S          0.68943
   7        3PX         0.00000   0.20269
   8        3PY         0.00000   0.00000   0.04770
   9        3PZ         0.00000   0.00000   0.00000   0.13009
  10        4XX        -0.01857   0.00000   0.00000   0.00000   0.00161
  11        4YY        -0.01493   0.00000   0.00000   0.00000   0.00044
  12        4ZZ        -0.01674   0.00000   0.00000   0.00000   0.00048
  13        4XY         0.00000   0.00000   0.00000   0.00000   0.00000
  14        4XZ         0.00000   0.00000   0.00000   0.00000   0.00000
  15        4YZ         0.00000   0.00000   0.00000   0.00000   0.00000
  16 2   N  1S          0.00000   0.00000   0.00000   0.00000   0.00000
  17        2S          0.00000   0.00000   0.00000   0.00000   0.00000
  18        2PX         0.00001   0.00006   0.00000   0.00000   0.00000
  19        2PY         0.00000  -0.00002   0.00000   0.00000   0.00000
  20        2PZ         0.00000   0.00001   0.00000   0.00000   0.00000
  21        3S          0.00001   0.00002   0.00000   0.00000   0.00000
  22        3PX         0.00021   0.00137  -0.00001   0.00002   0.00000
  23        3PY        -0.00005  -0.00034  -0.00002  -0.00001   0.00000
  24        3PZ         0.00002   0.00014   0.00000  -0.00003   0.00000
  25        4XX         0.00000   0.00000   0.00000   0.00000   0.00000
  26        4YY         0.00000   0.00000   0.00000   0.00000   0.00000
  27        4ZZ         0.00000   0.00000   0.00000   0.00000   0.00000
  28        4XY         0.00000   0.00000   0.00000   0.00000   0.00000
  29        4XZ         0.00000   0.00000   0.00000   0.00000   0.00000
  30        4YZ         0.00000   0.00000   0.00000   0.00000   0.00000
  31 3   H  1S          0.00062   0.00427   0.00343   0.01713   0.00000
  32        2S         -0.00324   0.01854   0.01322   0.06840  -0.00003
  33 4   H  1S          0.00062   0.01054   0.00609   0.00823   0.00001
  34        2S         -0.00325   0.04468   0.02418   0.03131   0.00030
  35 5   H  1S          0.00000   0.00000   0.00000   0.00000   0.00000
  36        2S          0.00000   0.00001   0.00000   0.00000   0.00000
  37 6   H  1S          0.00000   0.00000   0.00000   0.00000   0.00000
  38        2S          0.00000   0.00001   0.00000   0.00000   0.00000
                          11        12        13        14        15
  11        4YY         0.00120
  12        4ZZ         0.00040   0.00142
  13        4XY         0.00000   0.00000   0.00016
  14        4XZ         0.00000   0.00000   0.00000   0.00032
  15        4YZ         0.00000   0.00000   0.00000   0.00000   0.00017
  16 2   N  1S          0.00000   0.00000   0.00000   0.00000   0.00000
  17        2S          0.00000   0.00000   0.00000   0.00000   0.00000
  18        2PX         0.00000   0.00000   0.00000   0.00000   0.00000
  19        2PY         0.00000   0.00000   0.00000   0.00000   0.00000
  20        2PZ         0.00000   0.00000   0.00000   0.00000   0.00000
  21        3S          0.00000   0.00000   0.00000   0.00000   0.00000
  22        3PX         0.00000   0.00000   0.00000   0.00000   0.00000
  23        3PY         0.00000   0.00000   0.00000   0.00000   0.00000
  24        3PZ         0.00000   0.00000   0.00000   0.00000   0.00000
  25        4XX         0.00000   0.00000   0.00000   0.00000   0.00000
  26        4YY         0.00000   0.00000   0.00000   0.00000   0.00000
  27        4ZZ         0.00000   0.00000   0.00000   0.00000   0.00000
  28        4XY         0.00000   0.00000   0.00000   0.00000   0.00000
  29        4XZ         0.00000   0.00000   0.00000   0.00000   0.00000
  30        4YZ         0.00000   0.00000   0.00000   0.00000   0.00000
  31 3   H  1S         -0.00001   0.00003   0.00000   0.00002   0.00002
  32        2S         -0.00030   0.00060   0.00004   0.00020   0.00021
  33 4   H  1S         -0.00001  -0.00001   0.00002   0.00003   0.00002
  34        2S         -0.00016  -0.00007   0.00019   0.00025   0.00020
  35 5   H  1S          0.00000   0.00000   0.00000   0.00000   0.00000
  36        2S          0.00000   0.00000   0.00000   0.00000   0.00000
  37 6   H  1S          0.00000   0.00000   0.00000   0.00000   0.00000
  38        2S          0.00000   0.00000   0.00000   0.00000   0.00000
                          16        17        18        19        20
  16 2   N  1S          2.07795
  17        2S         -0.03902   0.57208
  18        2PX         0.00000   0.00000   0.63918
  19        2PY         0.00000   0.00000   0.00000   0.24481
  20        2PZ         0.00000   0.00000   0.00000   0.00000   0.37758
  21        3S         -0.04472   0.47587   0.00000   0.00000   0.00000
  22        3PX         0.00000   0.00000   0.22325   0.00000   0.00000
  23        3PY         0.00000   0.00000   0.00000   0.08806   0.00000
  24        3PZ         0.00000   0.00000   0.00000   0.00000   0.13538
  25        4XX        -0.00047  -0.01370   0.00000   0.00000   0.00000
  26        4YY        -0.00070  -0.00666   0.00000   0.00000   0.00000
  27        4ZZ        -0.00070  -0.00663   0.00000   0.00000   0.00000
  28        4XY         0.00000   0.00000   0.00000   0.00000   0.00000
  29        4XZ         0.00000   0.00000   0.00000   0.00000   0.00000
  30        4YZ         0.00000   0.00000   0.00000   0.00000   0.00000
  31 3   H  1S          0.00000   0.00000   0.00000   0.00000   0.00000
  32        2S          0.00000   0.00000   0.00000   0.00000   0.00000
  33 4   H  1S          0.00000   0.00000   0.00000   0.00000   0.00000
  34        2S          0.00000   0.00000   0.00000   0.00000   0.00000
  35 5   H  1S          0.00000   0.00008   0.00058   0.00122   0.00145
  36        2S          0.00000  -0.00125   0.00556   0.01107   0.01256
  37 6   H  1S          0.00000   0.00008   0.00137   0.00020   0.00169
  38        2S          0.00000  -0.00125   0.01274   0.00153   0.01493
                          21        22        23        24        25
  21        3S          0.66243
  22        3PX         0.00000   0.28974
  23        3PY         0.00000   0.00000   0.11760
  24        3PZ         0.00000   0.00000   0.00000   0.18012
  25        4XX        -0.01498   0.00000   0.00000   0.00000   0.00104
  26        4YY        -0.00748   0.00000   0.00000   0.00000   0.00013
  27        4ZZ        -0.00727   0.00000   0.00000   0.00000   0.00017
  28        4XY         0.00000   0.00000   0.00000   0.00000   0.00000
  29        4XZ         0.00000   0.00000   0.00000   0.00000   0.00000
  30        4YZ         0.00000   0.00000   0.00000   0.00000   0.00000
  31 3   H  1S          0.00000   0.00000   0.00000   0.00000   0.00000
  32        2S          0.00000  -0.00001   0.00001  -0.00001   0.00000
  33 4   H  1S          0.00000   0.00000   0.00000   0.00000   0.00000
  34        2S          0.00000  -0.00001   0.00000   0.00000   0.00000
  35 5   H  1S          0.00154   0.00535   0.01144   0.01369   0.00000
  36        2S         -0.00030   0.01577   0.03231   0.03677   0.00001
  37 6   H  1S          0.00154   0.01264   0.00193   0.01595   0.00003
  38        2S         -0.00032   0.03644   0.00457   0.04386   0.00051
                          26        27        28        29        30
  26        4YY         0.00059
  27        4ZZ         0.00014   0.00039
  28        4XY         0.00000   0.00000   0.00032
  29        4XZ         0.00000   0.00000   0.00000   0.00062
  30        4YZ         0.00000   0.00000   0.00000   0.00000   0.00018
  31 3   H  1S          0.00000   0.00000   0.00000   0.00000   0.00000
  32        2S          0.00000   0.00000   0.00000   0.00000   0.00000
  33 4   H  1S          0.00000   0.00000   0.00000   0.00000   0.00000
  34        2S          0.00000   0.00000   0.00000   0.00000   0.00000
  35 5   H  1S         -0.00001  -0.00004   0.00005   0.00006   0.00009
  36        2S         -0.00010  -0.00031   0.00017   0.00019   0.00030
  37 6   H  1S         -0.00004  -0.00002   0.00002   0.00015   0.00001
  38        2S         -0.00066  -0.00014   0.00004   0.00048   0.00003
                          31        32        33        34        35
  31 3   H  1S          0.11838
  32        2S          0.14048   0.38649
  33 4   H  1S          0.00000   0.00000   0.11839
  34        2S          0.00000  -0.00002   0.14047   0.38638
  35 5   H  1S          0.00000   0.00000   0.00000   0.00000   0.08963
  36        2S          0.00000   0.00000   0.00000   0.00000   0.08208
  37 6   H  1S          0.00000   0.00000   0.00000   0.00000   0.00000
  38        2S          0.00000   0.00000   0.00000   0.00000  -0.00005
                          36        37        38
  36        2S          0.17492
  37 6   H  1S         -0.00005   0.08965
  38        2S         -0.00078   0.08208   0.17486
     Gross orbital populations:
                           1
   1 1   C  1S          1.99181
   2        2S          0.98455
   3        2PX         0.52802
   4        2PY         0.14026
   5        2PZ         0.38038
   6        3S          1.08632
   7        3PX         0.43420
   8        3PY         0.13171
   9        3PZ         0.35615
  10        4XX        -0.03677
  11        4YY        -0.03070
  12        4ZZ        -0.03317
  13        4XY         0.00041
  14        4XZ         0.00082
  15        4YZ         0.00063
  16 2   N  1S          1.99233
  17        2S          0.97961
  18        2PX         0.88275
  19        2PY         0.34686
  20        2PZ         0.54361
  21        3S          1.06634
  22        3PX         0.58481
  23        3PY         0.25549
  24        3PZ         0.42590
  25        4XX        -0.02728
  26        4YY        -0.01478
  27        4ZZ        -0.01442
  28        4XY         0.00060
  29        4XZ         0.00151
  30        4YZ         0.00061
  31 3   H  1S          0.28696
  32        2S          0.65769
  33 4   H  1S          0.28697
  34        2S          0.65760
  35 5   H  1S          0.20717
  36        2S          0.36892
  37 6   H  1S          0.20724
  38        2S          0.36890
          Condensed to atoms (all electrons):
              1          2          3          4          5          6
     1  C    5.615392   0.001425   0.158851   0.158904   0.000014   0.000014
     2  N    0.001425   6.725963  -0.000010  -0.000010   0.148247   0.148320
     3  H    0.158851  -0.000010   0.785839  -0.000025   0.000000  -0.000001
     4  H    0.158904  -0.000010  -0.000025   0.785704  -0.000001   0.000000
     5  H    0.000014   0.148247   0.000000  -0.000001   0.428708  -0.000876
     6  H    0.000014   0.148320  -0.000001   0.000000  -0.000876   0.428686
 Mulliken atomic charges:
              1
     1  C    0.065399
     2  N   -0.023936
     3  H    0.055345
     4  H    0.055427
     5  H    0.423907
     6  H    0.423857
 Sum of Mulliken atomic charges =   1.00000
 Mulliken charges with hydrogens summed into heavy atoms:
              1
     1  C    0.176172
     2  N    0.823828
 Sum of Mulliken charges with hydrogens summed into heavy atoms =   1.00000
 Electronic spatial extent (au):  <R**2>=           1069.0840
 Charge=              1.0000 electrons
 Dipole moment (field-independent basis, Debye):
    X=             -7.8583    Y=              0.2595    Z=              1.0268  Tot=              7.9293
 Quadrupole moment (field-independent basis, Debye-Ang):
   XX=             20.1241   YY=             -9.1258   ZZ=             -2.8237
   XY=             -2.0455   XZ=             -1.6094   YZ=              6.7478
 Traceless Quadrupole moment (field-independent basis, Debye-Ang):
   XX=             17.3992   YY=            -11.8507   ZZ=             -5.5485
   XY=             -2.0455   XZ=             -1.6094   YZ=              6.7478
 Octapole moment (field-independent basis, Debye-Ang**2):
  XXX=            -38.1189  YYY=            -17.1669  ZZZ=             -5.0717  XYY=             42.4930
  XXY=             12.6490  XXZ=              6.7133  XZZ=             34.5597  YZZ=             -2.6290
  YYZ=             -3.2925  XYZ=            -11.4472
 Hexadecapole moment (field-independent basis, Debye-Ang**3):
 XXXX=           -500.7636 YYYY=            -51.2387 ZZZZ=            -43.3513 XXXY=            -22.8858
 XXXZ=             15.3098 YYYX=             81.3147 YYYZ=            -16.5597 ZZZX=             37.0871
 ZZZY=             -0.3614 XXYY=           -230.1365 XXZZ=           -195.9345 YYZZ=             -7.6576
 XXYZ=             50.6428 YYXZ=             11.2119 ZZXY=             15.0457
 N-N= 1.532205385030D+01 E-N=-2.454865557983D+02  KE= 9.195236311681D+01
 Orbital energies and kinetic energies (alpha):
                                 1                 2
   1         O               -14.685339         21.934289
   2         O               -10.490869         15.846058
   3         O                -1.141990          2.248755
   4         O                -0.846375          1.609849
   5         O                -0.702802          1.174636
   6         O                -0.661676          1.525199
   7         O                -0.516424          0.687807
   8         O                -0.457180          0.949588
   9         V                -0.335554          1.663858
  10         V                -0.309798          1.003348
  11         V                -0.253908          1.246288
  12         V                -0.171137          0.967444
  13         V                -0.160207          1.136405
  14         V                -0.113867          1.088076
  15         V                 0.482655          2.079804
  16         V                 0.500013          2.066655
  17         V                 0.538409          2.632880
  18         V                 0.594897          2.206762
  19         V                 0.596554          2.119146
  20         V                 0.619461          2.150896
  21         V                 0.626253          2.318970
  22         V                 0.628023          1.981933
  23         V                 0.691248          2.219243
  24         V                 0.698296          1.795231
  25         V                 0.829502          1.895842
  26         V                 0.845222          1.881126
  27         V                 1.586712          2.800002
  28         V                 1.596865          2.810226
  29         V                 1.600370          2.799896
  30         V                 1.619027          2.810407
  31         V                 1.626131          2.822426
  32         V                 1.670408          2.800002
  33         V                 1.671337          2.799988
  34         V                 1.672570          2.801999
  35         V                 1.697665          2.816166
  36         V                 1.697910          2.814584
  37         V                 3.148120          8.737329
  38         V                 3.772096          9.528146
 Total kinetic energy from orbitals= 9.195236311681D+01
 Calling FoFJK, ICntrl=      2127 FMM=F ISym2X=0 I1Cent= 0 IOpClX= 0 NMat=1 NMatS=1 NMatT=0.
 FoFJK:  IHMeth= 1 ICntrl=  2127 DoSepK=T KAlg= 1 I1Cent= 0 FoldK=F
 -------------------------------------------------------------------
 Center     Atomic                   Forces (Hartrees/Bohr)
 Number     Number              X              Y              Z
 -------------------------------------------------------------------
      1        6          -0.030010000   -0.006254911    0.008450756
      2        7           0.049589914   -0.012329743    0.000098172
      3        1           0.007974581   -0.030960299   -0.058701492
      4        1           0.024747016    0.036237505    0.050446736
      5        1          -0.016795607    0.044556875    0.060251152
      6        1          -0.035505903   -0.031249427   -0.060545323
 -------------------------------------------------------------------
 Cartesian Forces:  Max     0.060545323 RMS     0.036788673

 GradGradGradGradGradGradGradGradGradGradGradGradGradGradGradGradGradGrad
 Berny optimization.
 Search for a local minimum.
 Step number   1 out of a maximum of    2
 All quantities printed in internal units (Hartrees-Bohrs-Radians)
 Second derivative matrix not updated -- first step.
 The second derivative matrix:
                          X1        Y1        Z1        X2        Y2
           X1           1.00000
           Y1           0.00000   1.00000
           Z1           0.00000   0.00000   1.00000
           X2           0.00000   0.00000   0.00000   1.00000
           Y2           0.00000   0.00000   0.00000   0.00000   1.00000
           Z2           0.00000   0.00000   0.00000   0.00000   0.00000
           X3           0.00000   0.00000   0.00000   0.00000   0.00000
           Y3           0.00000   0.00000   0.00000   0.00000   0.00000
           Z3           0.00000   0.00000   0.00000   0.00000   0.00000
           X4           0.00000   0.00000   0.00000   0.00000   0.00000
           Y4           0.00000   0.00000   0.00000   0.00000   0.00000
           Z4           0.00000   0.00000   0.00000   0.00000   0.00000
           X5           0.00000   0.00000   0.00000   0.00000   0.00000
           Y5           0.00000   0.00000   0.00000   0.00000   0.00000
           Z5           0.00000   0.00000   0.00000   0.00000   0.00000
           X6           0.00000   0.00000   0.00000   0.00000   0.00000
           Y6           0.00000   0.00000   0.00000   0.00000   0.00000
           Z6           0.00000   0.00000   0.00000   0.00000   0.00000
                          Z2        X3        Y3        Z3        X4
           Z2           1.00000
           X3           0.00000   1.00000
           Y3           0.00000   0.00000   1.00000
           Z3           0.00000   0.00000   0.00000   1.00000
           X4           0.00000   0.00000   0.00000   0.00000   1.00000
           Y4           0.00000   0.00000   0.00000   0.00000   0.00000
           Z4           0.00000   0.00000   0.00000   0.00000   0.00000
           X5           0.00000   0.00000   0.00000   0.00000   0.00000
           Y5           0.00000   0.00000   0.00000   0.00000   0.00000
           Z5           0.00000   0.00000   0.00000   0.00000   0.00000
           X6           0.00000   0.00000   0.00000   0.00000   0.00000
           Y6           0.00000   0.00000   0.00000   0.00000   0.00000
           Z6           0.00000   0.00000   0.00000   0.00000   0.00000
                          Y4        Z4        X5        Y5        Z5
           Y4           1.00000
           Z4           0.00000   1.00000
           X5           0.00000   0.00000   1.00000
           Y5           0.00000   0.00000   0.00000   1.00000
           Z5           0.00000   0.00000   0.00000   0.00000   1.00000
           X6           0.00000   0.00000   0.00000   0.00000   0.00000
           Y6           0.00000   0.00000   0.00000   0.00000   0.00000
           Z6           0.00000   0.00000   0.00000   0.00000   0.00000
                          X6        Y6        Z6
           X6           1.00000
           Y6           0.00000   1.00000
           Z6           0.00000   0.00000   1.00000
     Eigenvalues ---    1.00000   1.00000   1.00000   1.00000   1.00000
     Eigenvalues ---    1.00000   1.00000   1.00000   1.00000   1.00000
     Eigenvalues ---    1.00000   1.00000   1.00000   1.00000   1.00000
     Eigenvalues ---    1.00000   1.00000   1.00000
 Angle between quadratic step and forces=   0.00 degrees.
 Linear search not attempted -- first point.
 TrRot=  0.000000  0.000001  0.000001  0.000000  0.000000  0.000000
 Variable       Old X    -DE/DX   Delta X   Delta X   Delta X     New X
                                 (Linear)    (Quad)   (Total)
    X1      -10.45740  -0.03001   0.00000  -0.03001  -0.03001 -10.48741
    Y1        1.34645  -0.00625   0.00000  -0.00625  -0.00626   1.34020
    Z1        0.76668   0.00845   0.00000   0.00845   0.00845   0.77513
    X2       -2.78871   0.04959   0.00000   0.04959   0.04959  -2.73912
    Y2        0.34123  -0.01233   0.00000  -0.01233  -0.01233   0.32890
    Z2        0.20835   0.00010   0.00000   0.00010   0.00010   0.20845
    X3      -11.56272   0.00797   0.00000   0.00797   0.00797 -11.55475
    Y3        3.10645  -0.03096   0.00000  -0.03096  -0.03096   3.07549
    Z3        4.32666  -0.05870   0.00000  -0.05870  -0.05870   4.26796
    X4      -12.54227   0.02475   0.00000   0.02475   0.02475 -12.51753
    Y4       -0.82046   0.03624   0.00000   0.03624   0.03624  -0.78422
    Z4       -2.05211   0.05045   0.00000   0.05045   0.05045  -2.00166
    X5       -1.61538  -0.01680   0.00000  -0.01680  -0.01679  -1.63218
    Y5       -1.86673   0.04456   0.00000   0.04456   0.04456  -1.82218
    Z5       -2.52151   0.06025   0.00000   0.06025   0.06025  -2.46125
    X6       -0.75694  -0.03551   0.00000  -0.03551  -0.03551  -0.79245
    Y6        1.61550  -0.03125   0.00000  -0.03125  -0.03125   1.58425
    Z6        3.02692  -0.06055   0.00000  -0.06055  -0.06054   2.96638
         Item               Value     Threshold  Converged?
 Maximum Force            0.060545     0.000450     NO 
 RMS     Force            0.036789     0.000300     NO 
 Maximum Displacement     0.060544     0.001800     NO 
 RMS     Displacement     0.036789     0.001200     NO 
 Predicted change in Energy=-1.218066D-02
 GradGradGradGradGradGradGradGradGradGradGradGradGradGradGradGradGradGrad


 Test job not archived.
 1\1\GINC-EAM\Force\RLC-BLYP\6-31G(d)\C1H4N1(1+)\DULIKAI\06-Jan-2014\0\
 \# force lc-blyp/6-31g* scf=(tight,maxcycle=10000) iop(9/40=20) nosymm
  pop=full\\[0] [0]\\1,1\C,-5.5338175,0.712513,0.4057093\N,-1.4757217,0
 .1805686,0.1102563\H,-6.1187275,1.6438646,2.2895698\H,-6.6370856,-0.43
 41665,-1.0859286\H,-0.8548232,-0.9878324,-1.3343232\H,-0.4005556,0.854
 8868,1.6017769\\Version=EM64L-G09RevA.01\HF=-93.6557603\RMSD=2.045e-09
 \RMSF=3.679e-02\Dipole=3.3049476,-0.6333333,-0.1159425\Quadrupole=12.9
 358842,-8.8106822,-4.125202,-1.520792,-1.1965223,5.0167975\PG=C01 [X(C
 1H4N1)]\\@


 DON'T WORRY CHARLIE BROWN...WE LEARN MORE FROM LOSING 
 THAN WE DO FROM WINNING.
 THEN THAT MAKES ME THE SMARTEST PERSON IN THE WORLD...
 CHARLES SCHULZ 'PEANUTS'
 Job cpu time:  0 days  0 hours  0 minutes 15.7 seconds.
 File lengths (MBytes):  RWF=      5 Int=      0 D2E=      0 Chk=      1 Scr=      1
 Normal termination of Gaussian 09 at Mon Jan  6 17:56:06 2014.
