fort.7
----- GAMESS execution script 'rungms' -----
This job is running on host eam
under operating system Linux at Wed Apr 30 16:22:37 CST 2014
Available scratch disk space (Kbyte units) at beginning of the job is
Filesystem     1K-blocks      Used Available Use% Mounted on
/dev/sda3      949976156 233270180 668449928  26% /
GAMESS temporary binary files will be written to /tmp/dulikai
GAMESS supplementary output files will be written to /home/dulikai/tree/shmd/trunk/test/1ps-gms/QC_TMP/OVERLAP/scr
Copying input file gamess.inp to your run's scratch directory...
cp gamess.inp /tmp/dulikai/gamess.F05
unset echo
READ GMS-FILES.CSH
/home/dulikai/opt/gamess/ddikick.x /home/dulikai/opt/gamess/gamess.06.x gamess -ddi 1 2 eam:cpus=2 -scr /tmp/dulikai

 Distributed Data Interface kickoff program.
 Initiating 2 compute processes on 1 nodes to run the following command:
 /home/dulikai/opt/gamess/gamess.06.x gamess 

          ******************************************************
          *         GAMESS VERSION =  1 MAY 2013 (R1)          *
          *             FROM IOWA STATE UNIVERSITY             *
          * M.W.SCHMIDT, K.K.BALDRIDGE, J.A.BOATZ, S.T.ELBERT, *
          *   M.S.GORDON, J.H.JENSEN, S.KOSEKI, N.MATSUNAGA,   *
          *          K.A.NGUYEN, S.J.SU, T.L.WINDUS,           *
          *       TOGETHER WITH M.DUPUIS, J.A.MONTGOMERY       *
          *         J.COMPUT.CHEM.  14, 1347-1363(1993)        *
          **************** 64 BIT LINUX VERSION ****************

  SINCE 1993, STUDENTS AND POSTDOCS WORKING AT IOWA STATE UNIVERSITY
  AND ALSO IN THEIR VARIOUS JOBS AFTER LEAVING ISU HAVE MADE IMPORTANT
  CONTRIBUTIONS TO THE CODE:
     IVANA ADAMOVIC, CHRISTINE AIKENS, YURI ALEXEEV, POOJA ARORA,
     ANDREY ASADCHEV, ROB BELL, PRADIPTA BANDYOPADHYAY, JONATHAN BENTZ,
     BRETT BODE, GALINA CHABAN, WEI CHEN, CHEOL HO CHOI, PAUL DAY,
     ALBERT DEFUSCO, TIM DUDLEY, DMITRI FEDOROV, GRAHAM FLETCHER,
     MARK FREITAG, KURT GLAESEMANN, DAN KEMP, GRANT MERRILL,
     NORIYUKI MINEZAWA, JONATHAN MULLIN, TAKESHI NAGATA,
     SEAN NEDD, HEATHER NETZLOFF, BOSILJKA NJEGIC, RYAN OLSON, MIKE PAK,
     JIM SHOEMAKER, LYUDMILA SLIPCHENKO, SAROM SOK, JIE SONG,
     TETSUYA TAKETSUGU, SIMON WEBB, SOOHAENG YOO, FEDERICO ZAHARIEV

  ADDITIONAL CODE HAS BEEN PROVIDED BY COLLABORATORS IN OTHER GROUPS:
     IOWA STATE UNIVERSITY:
          JOE IVANIC, LAIMUTIS BYTAUTAS, KLAUS RUEDENBERG
     UNIVERSITY OF TOKYO: KIMIHIKO HIRAO, TAKAHITO NAKAJIMA,
          TAKAO TSUNEDA, MUNEAKI KAMIYA, SUSUMU YANAGISAWA,
          KIYOSHI YAGI, MAHITO CHIBA, SEIKEN TOKURA, NAOAKI KAWAKAMI
     UNIVERSITY OF AARHUS: FRANK JENSEN
     UNIVERSITY OF IOWA: VISVALDAS KAIRYS, HUI LI
     NATIONAL INST. OF STANDARDS AND TECHNOLOGY: WALT STEVENS, DAVID GARMER
     UNIVERSITY OF PISA: BENEDETTA MENNUCCI, JACOPO TOMASI
     UNIVERSITY OF MEMPHIS: HENRY KURTZ, PRAKASHAN KORAMBATH
     UNIVERSITY OF ALBERTA: TOBY ZENG, MARIUSZ KLOBUKOWSKI
     UNIVERSITY OF NEW ENGLAND: MARK SPACKMAN
     MIE UNIVERSITY: HIROAKI UMEDA
     MICHIGAN STATE UNIVERSITY:
          KAROL KOWALSKI, MARTA WLOCH, JEFFREY GOUR, JESSE LUTZ,
          WEI LI, PIOTR PIECUCH
     UNIVERSITY OF SILESIA: MONIKA MUSIAL, STANISLAW KUCHARSKI
     FACULTES UNIVERSITAIRES NOTRE-DAME DE LA PAIX:
          OLIVIER QUINET, BENOIT CHAMPAGNE
     UNIVERSITY OF CALIFORNIA - SANTA BARBARA: BERNARD KIRTMAN
     INSTITUTE FOR MOLECULAR SCIENCE:
          KAZUYA ISHIMURA, MICHIO KATOUDA, AND SHIGERU NAGASE
     UNIVERSITY OF NOTRE DAME: DAN CHIPMAN
     KYUSHU UNIVERSITY:
          HARUYUKI NAKANO,
          FENG LONG GU, JACEK KORCHOWIEC, MARCIN MAKOWSKI, AND YURIKO AOKI,
          HIROTOSHI MORI AND EISAKU MIYOSHI
     PENNSYLVANIA STATE UNIVERSITY:
          TZVETELIN IORDANOV, CHET SWALINA, JONATHAN SKONE,
          SHARON HAMMES-SCHIFFER
     WASEDA UNIVERSITY:
          MASATO KOBAYASHI, TOMOKO AKAMA, TSUGUKI TOUMA,
          TAKESHI YOSHIKAWA, YASUHIRO IKABATA, HIROMI NAKAI
     NANJING UNIVERSITY: SHUHUA LI
     UNIVERSITY OF NEBRASKA:
          PEIFENG SU, DEJUN SI, NANDUN THELLAMUREGE, YALI WANG, HUI LI
     UNIVERSITY OF ZURICH:
          ROBERTO PEVERATI, KIM BALDRIDGE
     N. COPERNICUS UNIVERSITY AND JACKSON STATE UNIVERSITY:
          MARIA BARYSZ


 PARALLEL VERSION RUNNING ON     2 PROCESSORS IN     1 NODES.

 EXECUTION OF GAMESS BEGUN Wed Apr 30 16:22:37 2014

            ECHO OF THE FIRST FEW INPUT CARDS -
 INPUT CARD> $guess  guess=huckel $end                                                      
 INPUT CARD> $basis  gbasis=N31 ngauss=6 diffsp=.T. ndfunc=1 $end                           
 INPUT CARD> $contrl scftyp=rhf runtyp=energy exetyp=check                                  
 INPUT CARD>         NPRINT=3 MULT=1 ICHARG=2 NPRINT=3 $end                                 
 INPUT CARD> $system timlim=4 mwords=100 memddi=200 $end                                    
 INPUT CARD> $data                                                                          
 INPUT CARD>ONLY CHECK CALC, IGNORE WARINING..                                              
 INPUT CARD>C1                                                                              
 INPUT CARD>c            6.0  -3.0429073   0.3912112   0.2236894                            
 INPUT CARD>n            7.0  -0.6888295   0.0858356   0.0500296                            
 INPUT CARD>h            1.0  -3.4912928   0.9882898   1.0615413                            
 INPUT CARD>h            1.0  -3.7409950  -0.0061892  -0.5601758                            
 INPUT CARD>h            1.0  -0.2768851  -0.4396383  -0.7561683                            
 INPUT CARD>h            1.0  -0.0432004   0.5084131   0.7573336                            
 INPUT CARD>c            6.0  -3.0411058   0.3911029   0.2234826                            
 INPUT CARD>n            7.0  -0.6910327   0.0862388   0.0501173                            
 INPUT CARD>h            1.0  -3.4772022   0.9845277   1.0599584                            
 INPUT CARD>h            1.0  -3.7265247  -0.0085996  -0.5592146                            
 INPUT CARD>h            1.0  -0.2858863  -0.4408617  -0.7570598                            
 INPUT CARD>h            1.0  -0.0515405   0.5097308   0.7608528                            
 INPUT CARD>$end                                                                            
 CHECK SHOWS $CONTRL   GROUP SYNTAX IS OK
 CHECK SHOWS $GDDI     GROUP INPUT IS NOT PRESENT
 CHECK SHOWS $SYSTEM   GROUP SYNTAX IS OK
  100000000 WORDS OF MEMORY AVAILABLE
 CHECK SHOWS $LINK     GROUP INPUT IS NOT PRESENT
 CHECK SHOWS $ELG      GROUP INPUT IS NOT PRESENT
 CHECK SHOWS $DANDC    GROUP INPUT IS NOT PRESENT
 CHECK SHOWS $DCCORR   GROUP INPUT IS NOT PRESENT
 CHECK SHOWS $BASIS    GROUP SYNTAX IS OK

     BASIS OPTIONS
     -------------
     GBASIS=N31          IGAUSS=       6      POLAR=POPN31  
     NDFUNC=       1     NFFUNC=       0     DIFFSP=       T
     NPFUNC=       0      DIFFS=       F     BASNAM=        
 CHECK SHOWS $NEO      GROUP INPUT IS NOT PRESENT


     RUN TITLE
     ---------
 ONLY CHECK CALC, IGNORE WARINING..                                              

 THE POINT GROUP OF THE MOLECULE IS C1      
 THE ORDER OF THE PRINCIPAL AXIS IS     0

 ATOM      ATOMIC                      COORDINATES (BOHR)
           CHARGE         X                   Y                   Z
 C           6.0    -5.7502610030        0.7392819713        0.4227116724
 N           7.0    -1.3016990073        0.1622057640        0.0945422353
 H           1.0    -6.5975867349        1.8675969185        2.0060221817
 H           1.0    -7.0694554714       -0.0116958921       -1.0585787670
 H           1.0    -0.5232369691       -0.8307959207       -1.4289508876
 H           1.0    -0.0816369186        0.9607614476        1.4311529853
 C           6.0    -5.7468566617        0.7390773140        0.4223208770
 N           7.0    -1.3058624516        0.1629677015        0.0947079642
 H           1.0    -6.5709593619        1.8604875803        2.0030309344
 H           1.0    -7.0421105695       -0.0162508876       -1.0567623623
 H           1.0    -0.5402467706       -0.8331078115       -1.4306355783
 H           1.0    -0.0973974223        0.9632515395        1.4378033090

          INTERNUCLEAR DISTANCES (ANGS.)
          ------------------------------

                1 C          2 N          3 H          4 H          5 H     

   1 C       0.0000000    2.3801459 *  1.1222960 *  1.1223628 *  3.0498050  
   2 N       2.3801459 *  0.0000000    3.1130981    3.1139257    1.0467932 *
   3 H       1.1222960 *  3.1130981    0.0000000    1.9186730 *  3.9592251  
   4 H       1.1223628 *  3.1139257    1.9186730 *  0.0000000    3.4966196  
   5 H       3.0498050    1.0467932 *  3.9592251    3.4966196    0.0000000  
   6 H       3.0490579    1.0467510 *  3.4945908    3.9590821    1.8011380 *
   7 C       0.0018166 *  2.3783351 *  1.1232288 *  1.1233016 *  3.0480753  
   8 N       2.3779087 *  0.0022415 *  3.1109695    3.1117954    1.0479320 *
   9 H       1.1135450 *  3.0988104    0.0146698 *  1.9172745 *  3.9457058  
  10 H       1.1136068 *  3.0996272    1.9172825 *  0.0147011 *  3.4820394  
  11 H       3.0422655    1.0445892 *  3.9527731    3.4879048    0.0091276 *
  12 H       3.0415238    1.0445545 *  3.4858755    3.9526402    1.8037281 *

                6 H          7 C          8 N          9 H         10 H     

   1 C       3.0490579    0.0018166 *  2.3779087 *  1.1135450 *  1.1136068 *
   2 N       1.0467510 *  2.3783351 *  0.0022415 *  3.0988104    3.0996272  
   3 H       3.4945908    1.1232288 *  3.1109695    0.0146698 *  1.9172825 *
   4 H       3.9590821    1.1233016 *  3.1117954    1.9172745 *  0.0147011 *
   5 H       1.8011380 *  3.0480753    1.0479320 *  3.9457058    3.4820394  
   6 H       0.0000000    3.0473259    1.0478897 *  3.4800338    3.9455645  
   7 C       3.0473259    0.0000000    2.3760979 *  1.1144617 *  1.1145295 *
   8 N       1.0478897 *  2.3760979 *  0.0000000    3.0966825    3.0974976  
   9 H       3.4800338    1.1144617 *  3.0966825    0.0000000    1.9157726 *
  10 H       3.9455645    1.1145295 *  3.0974976    1.9157726 *  0.0000000  
  11 H       1.8037202 *  3.0405366    1.0457119 *  3.9392623    3.4733249  
  12 H       0.0091476 *  3.0397928    1.0456771 *  3.4713188    3.9391310  

               11 H         12 H     

   1 C       3.0422655    3.0415238  
   2 N       1.0445892 *  1.0445545 *
   3 H       3.9527731    3.4858755  
   4 H       3.4879048    3.9526402  
   5 H       0.0091276 *  1.8037281 *
   6 H       1.8037202 *  0.0091476 *
   7 C       3.0405366    3.0397928  
   8 N       1.0457119 *  1.0456771 *
   9 H       3.9392623    3.4713188  
  10 H       3.4733249    3.9391310  
  11 H       0.0000000    1.8062676 *
  12 H       1.8062676 *  0.0000000  

  * ... LESS THAN  3.000

 **** THERE ARE ATOMS LESS THAN   0.100 APART, QUITTING... ****
 CROWD CASE.
 CHECK SHOWS $EXCORR   GROUP INPUT IS NOT PRESENT

     ATOMIC BASIS SET
     ----------------
 THE CONTRACTED PRIMITIVE FUNCTIONS HAVE BEEN UNNORMALIZED
 THE CONTRACTED BASIS FUNCTIONS ARE NOW NORMALIZED TO UNITY

  SHELL TYPE  PRIMITIVE        EXPONENT          CONTRACTION COEFFICIENT(S)

 C         

      1   S       1          3047.5248800    0.001834737132
      1   S       2           457.3695180    0.014037322813
      1   S       3           103.9486850    0.068842622264
      1   S       4            29.2101553    0.232184443216
      1   S       5             9.2866630    0.467941348435
      1   S       6             3.1639270    0.362311985337

      2   L       7             7.8682723   -0.119332419775    0.068999066591
      2   L       8             1.8812885   -0.160854151696    0.316423960957
      2   L       9             0.5442493    1.143456437840    0.744308290898

      3   L      10             0.1687145    1.000000000000    1.000000000000

      4   L      11             0.0438000    1.000000000000    1.000000000000

      5   D      12             0.8000000    1.000000000000

 N         

      6   S      13          4173.5114600    0.001834772160
      6   S      14           627.4579110    0.013994627002
      6   S      15           142.9020930    0.068586551812
      6   S      16            40.2343293    0.232240873040
      6   S      17            12.8202129    0.469069948082
      6   S      18             4.3904370    0.360455199063

      7   L      19            11.6263619   -0.114961181702    0.067579743878
      7   L      20             2.7162798   -0.169117478561    0.323907295893
      7   L      21             0.7722184    1.145851947027    0.740895139755

      8   L      22             0.2120315    1.000000000000    1.000000000000

      9   L      23             0.0639000    1.000000000000    1.000000000000

     10   D      24             0.8000000    1.000000000000

 H         

     11   S      25            18.7311370    0.033494604338
     11   S      26             2.8253944    0.234726953484
     11   S      27             0.6401217    0.813757326146

     12   S      28             0.1612778    1.000000000000

 H         

     13   S      29            18.7311370    0.033494604338
     13   S      30             2.8253944    0.234726953484
     13   S      31             0.6401217    0.813757326146

     14   S      32             0.1612778    1.000000000000

 H         

     15   S      33            18.7311370    0.033494604338
     15   S      34             2.8253944    0.234726953484
     15   S      35             0.6401217    0.813757326146

     16   S      36             0.1612778    1.000000000000

 H         

     17   S      37            18.7311370    0.033494604338
     17   S      38             2.8253944    0.234726953484
     17   S      39             0.6401217    0.813757326146

     18   S      40             0.1612778    1.000000000000

 C         

     19   S      41          3047.5248800    0.001834737132
     19   S      42           457.3695180    0.014037322813
     19   S      43           103.9486850    0.068842622264
     19   S      44            29.2101553    0.232184443216
     19   S      45             9.2866630    0.467941348435
     19   S      46             3.1639270    0.362311985337

     20   L      47             7.8682723   -0.119332419775    0.068999066591
     20   L      48             1.8812885   -0.160854151696    0.316423960957
     20   L      49             0.5442493    1.143456437840    0.744308290898

     21   L      50             0.1687145    1.000000000000    1.000000000000

     22   L      51             0.0438000    1.000000000000    1.000000000000

     23   D      52             0.8000000    1.000000000000

 N         

     24   S      53          4173.5114600    0.001834772160
     24   S      54           627.4579110    0.013994627002
     24   S      55           142.9020930    0.068586551812
     24   S      56            40.2343293    0.232240873040
     24   S      57            12.8202129    0.469069948082
     24   S      58             4.3904370    0.360455199063

     25   L      59            11.6263619   -0.114961181702    0.067579743878
     25   L      60             2.7162798   -0.169117478561    0.323907295893
     25   L      61             0.7722184    1.145851947027    0.740895139755

     26   L      62             0.2120315    1.000000000000    1.000000000000

     27   L      63             0.0639000    1.000000000000    1.000000000000

     28   D      64             0.8000000    1.000000000000

 H         

     29   S      65            18.7311370    0.033494604338
     29   S      66             2.8253944    0.234726953484
     29   S      67             0.6401217    0.813757326146

     30   S      68             0.1612778    1.000000000000

 H         

     31   S      69            18.7311370    0.033494604338
     31   S      70             2.8253944    0.234726953484
     31   S      71             0.6401217    0.813757326146

     32   S      72             0.1612778    1.000000000000

 H         

     33   S      73            18.7311370    0.033494604338
     33   S      74             2.8253944    0.234726953484
     33   S      75             0.6401217    0.813757326146

     34   S      76             0.1612778    1.000000000000

 H         

     35   S      77            18.7311370    0.033494604338
     35   S      78             2.8253944    0.234726953484
     35   S      79             0.6401217    0.813757326146

     36   S      80             0.1612778    1.000000000000

 TOTAL NUMBER OF BASIS SET SHELLS             =   36
 NUMBER OF CARTESIAN GAUSSIAN BASIS FUNCTIONS =   92
 NUMBER OF ELECTRONS                          =   32
 CHARGE OF MOLECULE                           =    2
 SPIN MULTIPLICITY                            =    1
 NUMBER OF OCCUPIED ORBITALS (ALPHA)          =   16
 NUMBER OF OCCUPIED ORBITALS (BETA )          =   16
 TOTAL NUMBER OF ATOMS                        =   12
 THE NUCLEAR REPULSION ENERGY IS    22353.7860540380
 CHECK SHOWS $MASS     GROUP INPUT IS NOT PRESENT
 CHECK SHOWS $NEO      GROUP INPUT IS NOT PRESENT
 CHECK SHOWS $EFIELD   GROUP INPUT IS NOT PRESENT
 CHECK SHOWS $DFT      GROUP INPUT IS NOT PRESENT

     $CONTRL OPTIONS
     ---------------
 SCFTYP=RHF          RUNTYP=ENERGY       EXETYP=CHECK   
 MPLEVL=       0     CITYP =NONE         CCTYP =NONE         VBTYP =NONE    
 DFTTYP=NONE         TDDFT =NONE    
 MULT  =       1     ICHARG=       2     NZVAR =       0     COORD =UNIQUE  
 PP    =NONE         RELWFN=NONE         LOCAL =NONE         NUMGRD=       F
 ISPHER=      -1     NOSYM =       0     MAXIT =      30     UNITS =ANGS    
 PLTORB=       F     MOLPLT=       F     AIMPAC=       F     FRIEND=        
 NPRINT=       3     IREST =       0     GEOM  =INPUT   
 NORMF =       0     NORMP =       0     ITOL  =      20     ICUT  =       9
 INTTYP=BEST         GRDTYP=BEST         QMTTOL= 1.0E-06

     $SYSTEM OPTIONS
     ---------------
  REPLICATED MEMORY=   100000000 WORDS (ON EVERY NODE).
 DISTRIBUTED MEMDDI=         200 MILLION WORDS IN AGGREGATE,
 MEMDDI DISTRIBUTED OVER   2 PROCESSORS IS   100000000 WORDS/PROCESSOR.
 TOTAL MEMORY REQUESTED ON EACH PROCESSOR=   200000000 WORDS.
 TIMLIM=           4.00 MINUTES, OR       0.0 DAYS.
 PARALL= T  BALTYP=  DLB     KDIAG=    0  COREFL= F
 MXSEQ2=     300 MXSEQ3=     150
 CHECK SHOWS $SCRF     GROUP INPUT IS NOT PRESENT
 CHECK SHOWS $PCM      GROUP INPUT IS NOT PRESENT
 CHECK SHOWS $COSGMS   GROUP INPUT IS NOT PRESENT
 CHECK SHOWS $SVP      GROUP INPUT IS NOT PRESENT
 CHECK SHOWS $GRID     GROUP INPUT IS NOT PRESENT
 CHECK SHOWS $PDC      GROUP INPUT IS NOT PRESENT
 CHECK SHOWS $ELDENS   GROUP INPUT IS NOT PRESENT
 CHECK SHOWS $ELFLDG   GROUP INPUT IS NOT PRESENT
 CHECK SHOWS $ELMOM    GROUP INPUT IS NOT PRESENT
 CHECK SHOWS $ELPOT    GROUP INPUT IS NOT PRESENT

          ----------------
          PROPERTIES INPUT
          ----------------

     MOMENTS            FIELD           POTENTIAL          DENSITY
 IEMOM =       1   IEFLD =       0   IEPOT =       0   IEDEN =       0
 WHERE =COMASS     WHERE =NUCLEI     WHERE =NUCLEI     WHERE =NUCLEI  
 OUTPUT=BOTH       OUTPUT=BOTH       OUTPUT=BOTH       OUTPUT=BOTH    
 IEMINT=       0   IEFINT=       0                     IEDINT=       0
                                                       MORB  =       0
 CHECK SHOWS $SCF      GROUP INPUT IS NOT PRESENT
          EXTRAPOLATION IN EFFECT
          SOSCF IN EFFECT
 ORBITAL PRINTING OPTION: NPREO=     1    92     2     1
 CHECK SHOWS $SCFMI    GROUP INPUT IS NOT PRESENT
 CHECK SHOWS $TRANS    GROUP INPUT IS NOT PRESENT

     -------------------------------
     INTEGRAL TRANSFORMATION OPTIONS
     -------------------------------
     NWORD  =            0
     CUTOFF = 1.0E-09     MPTRAN =       0
     DIRTRF =       F     AOINTS =DUP     
 CHECK SHOWS $INTGRL   GROUP INPUT IS NOT PRESENT

          ----------------------
          INTEGRAL INPUT OPTIONS
          ----------------------
 NOPK  =       1 NORDER=       0 SCHWRZ=       T

     ------------------------------------------
     THE POINT GROUP IS C1 , NAXIS= 0, ORDER= 1
     ------------------------------------------

     DIMENSIONS OF THE SYMMETRY SUBSPACES ARE
 A   =   92

 ..... DONE SETTING UP THE RUN .....
 CPU     0: STEP CPU TIME=     0.00 TOTAL CPU TIME=        0.0 (    0.0 MIN)
 TOTAL WALL CLOCK TIME=        0.0 SECONDS, CPU UTILIZATION IS   0.00%

          ********************
          1 ELECTRON INTEGRALS
          ********************
 OVERLAP MATRIX

                      1          2          3          4          5

    1  C  1  S    1.000000
    2  C  1  S    0.219059   1.000000
    3  C  1  X   -0.000000  -0.000000   1.000000
    4  C  1  Y    0.000000   0.000000  -0.000000   1.000000
    5  C  1  Z    0.000000   0.000000  -0.000000   0.000000   1.000000
    6  C  1  S    0.184261   0.812273  -0.000000  -0.000000   0.000000
    7  C  1  X    0.000000  -0.000000   0.569754  -0.000000  -0.000000
    8  C  1  Y   -0.000000   0.000000  -0.000000   0.569754   0.000000
    9  C  1  Z   -0.000000   0.000000  -0.000000   0.000000   0.569754
   10  C  1  S    0.069772   0.402091   0.000000  -0.000000   0.000000
   11  C  1  X   -0.000000  -0.000000   0.164679   0.000000   0.000000
   12  C  1  Y    0.000000   0.000000   0.000000   0.164679   0.000000
   13  C  1  Z    0.000000   0.000000   0.000000   0.000000   0.164679
   14  C  1 XX    0.079103   0.710235  -0.000000  -0.000000  -0.000000
   15  C  1 YY    0.079103   0.710235  -0.000000  -0.000000  -0.000000
   16  C  1 ZZ    0.079103   0.710235  -0.000000  -0.000000  -0.000000
   17  C  1 XY   -0.000000   0.000000  -0.000000  -0.000000   0.000000
   18  C  1 XZ   -0.000000   0.000000  -0.000000   0.000000  -0.000000
   19  C  1 YZ    0.000000  -0.000000   0.000000  -0.000000  -0.000000
   20  N  2  S    0.000000   0.000015   0.000060  -0.000008  -0.000004
   21  N  2  S    0.000001   0.001991   0.004997  -0.000648  -0.000369
   22  N  2  X   -0.000005  -0.004247  -0.009946   0.001400   0.000796
   23  N  2  Y    0.000001   0.000551   0.001400   0.000665  -0.000103
   24  N  2  Z    0.000000   0.000313   0.000796  -0.000103   0.000788
   25  N  2  S    0.003588   0.042512   0.057239  -0.007425  -0.004223
   26  N  2  X   -0.014025  -0.123821  -0.143791   0.022278   0.012669
   27  N  2  Y    0.001819   0.016062   0.022278   0.025053  -0.001643
   28  N  2  Z    0.001035   0.009134   0.012669  -0.001643   0.027008
   29  N  2  S    0.025719   0.160390   0.085553  -0.011098  -0.006311
   30  N  2  X   -0.057033  -0.320685  -0.097437   0.022509   0.012800
   31  N  2  Y    0.007398   0.041600   0.022509   0.073159  -0.001660
   32  N  2  Z    0.004207   0.023657   0.012800  -0.001660   0.075135
   33  N  2 XX    0.000017   0.010568   0.023376  -0.003524  -0.002004
   34  N  2 YY    0.000000   0.001249   0.003187   0.000078  -0.000235
   35  N  2 ZZ    0.000000   0.001141   0.002909  -0.000377   0.000065
   36  N  2 XY   -0.000004  -0.002130  -0.005054  -0.002572   0.000404
   37  N  2 XZ   -0.000002  -0.001211  -0.002874   0.000404  -0.003053
   38  N  2 YZ    0.000000   0.000157   0.000404   0.000190   0.000396
   39  H  3  S    0.028350   0.253792  -0.139407   0.185637   0.260496
   40  H  3  S    0.088610   0.461540  -0.105829   0.140924   0.197752
   41  H  4  S    0.028341   0.253752  -0.217003  -0.123533  -0.243667
   42  H  4  S    0.088603   0.461510  -0.164753  -0.093789  -0.184997
   43  H  5  S    0.000000   0.000053   0.000144  -0.000043  -0.000051
   44  H  5  S    0.001014   0.013569   0.017257  -0.005184  -0.006113
   45  H  6  S    0.000000   0.000053   0.000157   0.000006   0.000028
   46  H  6  S    0.001017   0.013596   0.018754   0.000733   0.003336
   47  C  7  S    0.999936   0.219064   0.003619  -0.000218  -0.000415
   48  C  7  S    0.219064   0.999996   0.001705  -0.000102  -0.000196
   49  C  7  X   -0.003619  -0.001705   0.999985   0.000001   0.000001
   50  C  7  Y    0.000218   0.000102   0.000001   0.999995  -0.000000
   51  C  7  Z    0.000415   0.000196   0.000001  -0.000000   0.999995
   52  C  7  S    0.184261   0.812272   0.000797  -0.000048  -0.000091
   53  C  7  X   -0.000497  -0.001695   0.569752   0.000000   0.000000
   54  C  7  Y    0.000030   0.000102   0.000000   0.569753  -0.000000
   55  C  7  Z    0.000057   0.000195   0.000000  -0.000000   0.569753
   56  C  7  S    0.069772   0.402090   0.000117  -0.000007  -0.000013
   57  C  7  X   -0.000098  -0.000528   0.164678   0.000000   0.000000
   58  C  7  Y    0.000006   0.000032   0.000000   0.164679  -0.000000
   59  C  7  Z    0.000011   0.000061   0.000000  -0.000000   0.164679
   60  C  7 XX    0.079110   0.710234  -0.001628  -0.000106  -0.000202
   61  C  7 YY    0.079102   0.710233   0.001759   0.000098  -0.000202
   62  C  7 ZZ    0.079102   0.710233   0.001759  -0.000106   0.000187
   63  C  7 XY   -0.000001  -0.000000   0.000176  -0.002933   0.000000
   64  C  7 XZ   -0.000002  -0.000000   0.000337   0.000000  -0.002933
   65  C  7 YZ    0.000000   0.000000   0.000000   0.000337   0.000176
   66  N  8  S    0.000000   0.000016   0.000061  -0.000008  -0.000005
   67  N  8  S    0.000001   0.002015   0.005053  -0.000655  -0.000373
   68  N  8  X   -0.000005  -0.004295  -0.010049   0.001414   0.000805
   69  N  8  Y    0.000001   0.000557   0.001414   0.000674  -0.000104
   70  N  8  Z    0.000000   0.000317   0.000805  -0.000104   0.000798
   71  N  8  S    0.003616   0.042757   0.057524  -0.007459  -0.004245
   72  N  8  X   -0.014120  -0.124414  -0.144323   0.022360   0.012726
   73  N  8  Y    0.001831   0.016133   0.022360   0.025209  -0.001650
   74  N  8  Z    0.001042   0.009182   0.012726  -0.001650   0.027169
   75  N  8  S    0.025781   0.160737   0.085661  -0.011108  -0.006322
   76  N  8  X   -0.057117  -0.321077  -0.097325   0.022507   0.012810
   77  N  8  Y    0.007406   0.041635   0.022507   0.073328  -0.001661
   78  N  8  Z    0.004215   0.023696   0.012810  -0.001661   0.075301
   79  N  8 XX    0.000018   0.010681   0.023599  -0.003557  -0.002025
   80  N  8 YY    0.000000   0.001264   0.003222   0.000079  -0.000238
   81  N  8 ZZ    0.000000   0.001155   0.002942  -0.000382   0.000066
   82  N  8 XY   -0.000004  -0.002151  -0.005100  -0.002604   0.000408
   83  N  8 XZ   -0.000002  -0.001224  -0.002903   0.000408  -0.003089
   84  N  8 YZ    0.000000   0.000159   0.000408   0.000192   0.000401
   85  H  9  S    0.029489   0.259094  -0.138239   0.188856   0.266190
   86  H  9  S    0.089580   0.465493  -0.103419   0.141287   0.199141
   87  H 10  S    0.029481   0.259056  -0.217564  -0.127241  -0.249162
   88  H 10  S    0.089573   0.465466  -0.162780  -0.095201  -0.186422
   89  H 11  S    0.000000   0.000056   0.000150  -0.000045  -0.000054
   90  H 11  S    0.001041   0.013846   0.017560  -0.005300  -0.006247
   91  H 12  S    0.000000   0.000056   0.000164   0.000006   0.000029
   92  H 12  S    0.001043   0.013874   0.019091   0.000756   0.003428

                      6          7          8          9         10

    6  C  1  S    1.000000
    7  C  1  X    0.000000   1.000000
    8  C  1  Y    0.000000   0.000000   1.000000
    9  C  1  Z    0.000000   0.000000   0.000000   1.000000
   10  C  1  S    0.727666   0.000000   0.000000   0.000000   1.000000
   11  C  1  X    0.000000   0.588690   0.000000   0.000000   0.000000
   12  C  1  Y    0.000000   0.000000   0.588690   0.000000  -0.000000
   13  C  1  Z    0.000000   0.000000   0.000000   0.588690  -0.000000
   14  C  1 XX    0.629936  -0.000000   0.000000   0.000000   0.323540
   15  C  1 YY    0.629936  -0.000000   0.000000   0.000000   0.323540
   16  C  1 ZZ    0.629936  -0.000000   0.000000   0.000000   0.323540
   17  C  1 XY   -0.000000   0.000000  -0.000000  -0.000000  -0.000000
   18  C  1 XZ   -0.000000   0.000000  -0.000000  -0.000000  -0.000000
   19  C  1 YZ    0.000000  -0.000000   0.000000   0.000000   0.000000
   20  N  2  S    0.005268   0.018742  -0.002431  -0.001383   0.022720
   21  N  2  S    0.044124   0.131095  -0.017006  -0.009671   0.139053
   22  N  2  X   -0.046103  -0.114699   0.018152   0.010323  -0.044754
   23  N  2  Y    0.005981   0.018152   0.022876  -0.001339   0.005806
   24  N  2  Z    0.003401   0.010323  -0.001339   0.024470   0.003302
   25  N  2  S    0.148005   0.301209  -0.039073  -0.022220   0.313747
   26  N  2  X   -0.268685  -0.399763   0.070933   0.040338  -0.220064
   27  N  2  Y    0.034854   0.070933   0.137843  -0.005233   0.028547
   28  N  2  Z    0.019821   0.040338  -0.005233   0.144068   0.016234
   29  N  2  S    0.330280   0.331567  -0.043012  -0.024460   0.575613
   30  N  2  X   -0.538763  -0.246013   0.070162   0.039899  -0.526488
   31  N  2  Y    0.069889   0.070162   0.285749  -0.005176   0.068297
   32  N  2  Z    0.039744   0.039899  -0.005176   0.291907   0.038839
   33  N  2 XX    0.081320   0.197567  -0.031837  -0.018105   0.152230
   34  N  2 YY    0.038332   0.115686  -0.008799  -0.008534   0.139874
   35  N  2 ZZ    0.037834   0.114184  -0.014812  -0.004893   0.139731
   36  N  2 XY   -0.009824  -0.024273  -0.037600   0.002187  -0.002824
   37  N  2 XZ   -0.005587  -0.013803   0.002187  -0.040203  -0.001606
   38  N  2 YZ    0.000725   0.002187   0.002774   0.005215   0.000208
   39  H  3  S    0.364164  -0.204597   0.272446   0.382310   0.256175
   40  H  3  S    0.689863  -0.234687   0.312514   0.438536   0.635576
   41  H  4  S    0.364137  -0.318512  -0.181320  -0.357650   0.256169
   42  H  4  S    0.689832  -0.365367  -0.207992  -0.410261   0.635564
   43  H  5  S    0.007448   0.025564  -0.007679  -0.009056   0.078482
   44  H  5  S    0.064621   0.135615  -0.040736  -0.048041   0.236357
   45  H  6  S    0.007465   0.027784   0.001086   0.004943   0.078535
   46  H  6  S    0.064708   0.147270   0.005754   0.026199   0.236489
   47  C  7  S    0.184261   0.000497  -0.000030  -0.000057   0.069772
   48  C  7  S    0.812272   0.001695  -0.000102  -0.000195   0.402090
   49  C  7  X   -0.000797   0.569752   0.000000   0.000000  -0.000117
   50  C  7  Y    0.000048   0.000000   0.569753  -0.000000   0.000007
   51  C  7  Z    0.000091   0.000000  -0.000000   0.569753   0.000013
   52  C  7  S    0.999999   0.001398  -0.000084  -0.000161   0.727666
   53  C  7  X   -0.001398   0.999997   0.000000   0.000000  -0.000419
   54  C  7  Y    0.000084   0.000000   0.999999  -0.000000   0.000025
   55  C  7  Z    0.000161   0.000000  -0.000000   0.999999   0.000048
   56  C  7  S    0.727666   0.000419  -0.000025  -0.000048   1.000000
   57  C  7  X   -0.000823   0.588689   0.000000   0.000000  -0.000712
   58  C  7  Y    0.000049   0.000000   0.588690  -0.000000   0.000043
   59  C  7  Z    0.000094   0.000000  -0.000000   0.588690   0.000082
   60  C  7 XX    0.629936   0.000841  -0.000087  -0.000167   0.323540
   61  C  7 YY    0.629935   0.001455  -0.000051  -0.000167   0.323540
   62  C  7 ZZ    0.629935   0.001455  -0.000087  -0.000097   0.323540
   63  C  7 XY   -0.000000   0.000032  -0.000531   0.000000  -0.000000
   64  C  7 XZ   -0.000000   0.000061   0.000000  -0.000531  -0.000000
   65  C  7 YZ    0.000000   0.000000   0.000061   0.000032   0.000000
   66  N  8  S    0.005301   0.018842  -0.002443  -0.001391   0.022757
   67  N  8  S    0.044355   0.131656  -0.017072  -0.009716   0.139271
   68  N  8  X   -0.046306  -0.115050   0.018208   0.010363  -0.044783
   69  N  8  Y    0.006005   0.018208   0.023005  -0.001344   0.005807
   70  N  8  Z    0.003417   0.010363  -0.001344   0.024601   0.003305
   71  N  8  S    0.148535   0.302003  -0.039161  -0.022288   0.314180
   72  N  8  X   -0.269394  -0.400167   0.071026   0.040424  -0.220162
   73  N  8  Y    0.034933   0.071026   0.138360  -0.005242   0.028549
   74  N  8  Z    0.019882   0.040424  -0.005242   0.144587   0.016248
   75  N  8  S    0.330862   0.331841  -0.043031  -0.024490   0.576182
   76  N  8  X   -0.539208  -0.245433   0.070127   0.039912  -0.526516
   77  N  8  Y    0.069920   0.070127   0.286277  -0.005175   0.068274
   78  N  8  Z    0.039794   0.039912  -0.005175   0.292425   0.038858
   79  N  8 XX    0.081670   0.198182  -0.031932  -0.018174   0.152447
   80  N  8 YY    0.038534   0.116186  -0.008833  -0.008575   0.140094
   81  N  8 ZZ    0.038035   0.114682  -0.014871  -0.004916   0.139951
   82  N  8 XY   -0.009854  -0.024314  -0.037775   0.002193  -0.002822
   83  N  8 XZ   -0.005608  -0.013838   0.002193  -0.040379  -0.001606
   84  N  8 YZ    0.000727   0.002193   0.002788   0.005236   0.000208
   85  H  9  S    0.367645  -0.200069   0.273326   0.385248   0.256914
   86  H  9  S    0.693849  -0.228626   0.312339   0.440237   0.637107
   87  H 10  S    0.367621  -0.314904  -0.184170  -0.360640   0.256908
   88  H 10  S    0.693820  -0.359862  -0.210464  -0.412127   0.637096
   89  H 11  S    0.007615   0.026051  -0.007862  -0.009267   0.079014
   90  H 11  S    0.065501   0.137014  -0.041351  -0.048740   0.237696
   91  H 12  S    0.007632   0.028327   0.001122   0.005087   0.079067
   92  H 12  S    0.065588   0.148858   0.005898   0.026731   0.237828

                     11         12         13         14         15

   11  C  1  X    1.000000
   12  C  1  Y   -0.000000   1.000000
   13  C  1  Z   -0.000000   0.000000   1.000000
   14  C  1 XX   -0.000000   0.000000   0.000000   1.000000
   15  C  1 YY   -0.000000   0.000000   0.000000   0.333333   1.000000
   16  C  1 ZZ   -0.000000   0.000000   0.000000   0.333333   0.333333
   17  C  1 XY    0.000000  -0.000000  -0.000000   0.000000   0.000000
   18  C  1 XZ    0.000000  -0.000000  -0.000000   0.000000   0.000000
   19  C  1 YZ   -0.000000   0.000000   0.000000   0.000000   0.000000
   20  N  2  S    0.042010  -0.005450  -0.003099   0.000008   0.000000
   21  N  2  S    0.244212  -0.031680  -0.018015   0.003793   0.000297
   22  N  2  X   -0.031080   0.010268   0.005839  -0.008668  -0.000767
   23  N  2  Y    0.010268   0.046739  -0.000757   0.001278  -0.000054
   24  N  2  Z    0.005839  -0.000757   0.047640   0.000727   0.000057
   25  N  2  S    0.484186  -0.062810  -0.035718   0.062268   0.023243
   26  N  2  X   -0.103241   0.044055   0.025053  -0.162902  -0.075274
   27  N  2  Y    0.044055   0.230655  -0.003250   0.026159   0.004737
   28  N  2  Z    0.025053  -0.003250   0.234522   0.014876   0.005553
   29  N  2  S    0.635920  -0.082493  -0.046912   0.145201   0.122704
   30  N  2  X   -0.016149   0.075453   0.042908  -0.261713  -0.255555
   31  N  2  Y    0.075453   0.555711  -0.005566   0.039229   0.027872
   32  N  2  Z    0.042908  -0.005566   0.562334   0.022309   0.018852
   33  N  2 XX    0.241745  -0.034862  -0.019825   0.022637   0.002174
   34  N  2 YY    0.246930  -0.028530  -0.018216   0.002174   0.000259
   35  N  2 ZZ    0.246677  -0.031999  -0.016206   0.001864   0.000140
   36  N  2 XY   -0.001952  -0.022734   0.000368  -0.005380   0.000266
   37  N  2 XZ   -0.001110   0.000368  -0.023172  -0.003060  -0.000261
   38  N  2 YZ    0.000368   0.001677   0.003006   0.000450  -0.000020
   39  H  3  S   -0.085462   0.113802   0.159693   0.158872   0.198812
   40  H  3  S   -0.177272   0.236059   0.331250   0.352653   0.362851
   41  H  4  S   -0.133052  -0.075742  -0.149400   0.232375   0.147763
   42  H  4  S   -0.275989  -0.157112  -0.309901   0.371406   0.349799
   43  H  5  S    0.161470  -0.048502  -0.057200   0.000064   0.000009
   44  H  5  S    0.406673  -0.122155  -0.144063   0.017825   0.008151
   45  H  6  S    0.175229   0.006846   0.031173   0.000074   0.000004
   46  H  6  S    0.441278   0.017241   0.078503   0.019740   0.007226
   47  C  7  S    0.000098  -0.000006  -0.000011   0.079110   0.079102
   48  C  7  S    0.000528  -0.000032  -0.000061   0.710234   0.710233
   49  C  7  X    0.164678   0.000000   0.000000   0.001628  -0.001759
   50  C  7  Y    0.000000   0.164679  -0.000000   0.000106  -0.000098
   51  C  7  Z    0.000000  -0.000000   0.164679   0.000202   0.000202
   52  C  7  S    0.000823  -0.000049  -0.000094   0.629936   0.629935
   53  C  7  X    0.588689   0.000000   0.000000  -0.000841  -0.001455
   54  C  7  Y    0.000000   0.588690  -0.000000   0.000087   0.000051
   55  C  7  Z    0.000000  -0.000000   0.588690   0.000167   0.000167
   56  C  7  S    0.000712  -0.000043  -0.000082   0.323540   0.323540
   57  C  7  X    0.999999   0.000000   0.000000  -0.000389  -0.000437
   58  C  7  Y    0.000000   1.000000  -0.000000   0.000026   0.000023
   59  C  7  Z    0.000000  -0.000000   1.000000   0.000050   0.000050
   60  C  7 XX    0.000389  -0.000026  -0.000050   0.999989   0.333335
   61  C  7 YY    0.000437  -0.000023  -0.000050   0.333335   0.999995
   62  C  7 ZZ    0.000437  -0.000026  -0.000045   0.333335   0.333332
   63  C  7 XY    0.000002  -0.000041   0.000000   0.000000   0.000000
   64  C  7 XZ    0.000005   0.000000  -0.000041   0.000001  -0.000001
   65  C  7 YZ    0.000000   0.000005   0.000002   0.000000  -0.000000
   66  N  8  S    0.042040  -0.005451  -0.003103   0.000008   0.000000
   67  N  8  S    0.244367  -0.031688  -0.018035   0.003843   0.000302
   68  N  8  X   -0.030981   0.010261   0.005840  -0.008773  -0.000778
   69  N  8  Y    0.010261   0.046816  -0.000757   0.001294  -0.000055
   70  N  8  Z    0.005840  -0.000757   0.047716   0.000736   0.000057
   71  N  8  S    0.484401  -0.062813  -0.035750   0.062591   0.023390
   72  N  8  X   -0.102748   0.044016   0.025052  -0.163548  -0.075678
   73  N  8  Y    0.044016   0.230989  -0.003248   0.026260   0.004761
   74  N  8  Z    0.025052  -0.003248   0.234848   0.014946   0.005585
   75  N  8  S    0.635952  -0.082465  -0.046934   0.145485   0.122979
   76  N  8  X   -0.015076   0.075357   0.042889  -0.261968  -0.255889
   77  N  8  Y    0.075357   0.556287  -0.005561   0.039254   0.027897
   78  N  8  Z    0.042889  -0.005561   0.562893   0.022341   0.018885
   79  N  8 XX    0.241859  -0.034865  -0.019843   0.022893   0.002202
   80  N  8 YY    0.247087  -0.028537  -0.018235   0.002202   0.000263
   81  N  8 ZZ    0.246836  -0.032008  -0.016223   0.001889   0.000142
   82  N  8 XY   -0.001943  -0.022751   0.000367  -0.005439   0.000270
   83  N  8 XZ   -0.001106   0.000367  -0.023187  -0.003096  -0.000265
   84  N  8 YZ    0.000367   0.001679   0.003007   0.000456  -0.000020
   85  H  9  S   -0.083015   0.113411   0.159851   0.159812   0.202997
   86  H  9  S   -0.172115   0.235137   0.331421   0.355152   0.365973
   87  H 10  S   -0.130670  -0.076422  -0.149648   0.233425   0.152183
   88  H 10  S   -0.270919  -0.158446  -0.310267   0.373584   0.353224
   89  H 11  S    0.162036  -0.048903  -0.057641   0.000067   0.000010
   90  H 11  S    0.407647  -0.123028  -0.145011   0.018151   0.008335
   91  H 12  S    0.175926   0.006970   0.031591   0.000078   0.000004
   92  H 12  S    0.442542   0.017534   0.079468   0.020108   0.007387

                     16         17         18         19         20

   16  C  1 ZZ    1.000000
   17  C  1 XY    0.000000   1.000000
   18  C  1 XZ    0.000000   0.000000   1.000000
   19  C  1 YZ    0.000000   0.000000   0.000000   1.000000
   20  N  2  S    0.000000  -0.000002  -0.000001   0.000000   1.000000
   21  N  2  S    0.000257  -0.000799  -0.000454   0.000059   0.222216
   22  N  2  X   -0.000662   0.001943   0.001105  -0.000153   0.000000
   23  N  2  Y    0.000086   0.000757  -0.000153  -0.000056  -0.000000
   24  N  2  Z   -0.000039  -0.000153   0.000939  -0.000122  -0.000000
   25  N  2  S    0.022791  -0.008918  -0.005072   0.000658   0.171869
   26  N  2  X   -0.073810   0.024528   0.013949  -0.002131   0.000000
   27  N  2  Y    0.009575   0.029816  -0.002131  -0.002199   0.000000
   28  N  2  Z    0.002586  -0.002131   0.032351  -0.004197   0.000000
   29  N  2  S    0.122443  -0.005141  -0.002924   0.000379   0.072359
   30  N  2  X   -0.255012   0.006136   0.003489  -0.000790  -0.000000
   31  N  2  Y    0.033081   0.033855  -0.000790  -0.002498  -0.000000
   32  N  2  Z    0.015810  -0.000790   0.034795  -0.004514  -0.000000
   33  N  2 XX    0.001864  -0.005380  -0.003060   0.000450   0.050413
   34  N  2 YY    0.000140   0.000266  -0.000261  -0.000020   0.050413
   35  N  2 ZZ    0.000289  -0.000394   0.000189  -0.000024   0.050413
   36  N  2 XY   -0.000394  -0.003329   0.000687   0.000262  -0.000000
   37  N  2 XZ    0.000189   0.000687  -0.004146   0.000574  -0.000000
   38  N  2 YZ   -0.000024   0.000262   0.000574   0.000205   0.000000
   39  H  3  S    0.287577  -0.119137  -0.167179   0.222619   0.000000
   40  H  3  S    0.385516  -0.030420  -0.042687   0.056843   0.000614
   41  H  4  S    0.265028   0.123426   0.243457   0.138593   0.000000
   42  H  4  S    0.379745   0.031520   0.062173   0.035393   0.000613
   43  H  5  S    0.000011  -0.000031  -0.000037   0.000011   0.030020
   44  H  5  S    0.008526  -0.005532  -0.006524   0.001960   0.076541
   45  H  6  S    0.000006   0.000005   0.000022   0.000001   0.030025
   46  H  6  S    0.007604   0.000848   0.003862   0.000151   0.076545
   47  C  7  S    0.079102  -0.000001  -0.000002   0.000000   0.000000
   48  C  7  S    0.710233  -0.000000  -0.000000   0.000000   0.000016
   49  C  7  X   -0.001759  -0.000176  -0.000337  -0.000000   0.000061
   50  C  7  Y    0.000106   0.002933  -0.000000  -0.000337  -0.000008
   51  C  7  Z   -0.000187  -0.000000   0.002933  -0.000176  -0.000004
   52  C  7  S    0.629935  -0.000000  -0.000000   0.000000   0.005295
   53  C  7  X   -0.001455  -0.000032  -0.000061  -0.000000   0.018823
   54  C  7  Y    0.000087   0.000531  -0.000000  -0.000061  -0.002443
   55  C  7  Z    0.000097  -0.000000   0.000531  -0.000032  -0.001388
   56  C  7  S    0.323540  -0.000000  -0.000000   0.000000   0.022750
   57  C  7  X   -0.000437  -0.000002  -0.000005  -0.000000   0.042034
   58  C  7  Y    0.000026   0.000041  -0.000000  -0.000005  -0.005455
   59  C  7  Z    0.000045  -0.000000   0.000041  -0.000002  -0.003100
   60  C  7 XX    0.333335   0.000000   0.000001   0.000000   0.000008
   61  C  7 YY    0.333332   0.000000  -0.000001  -0.000000   0.000000
   62  C  7 ZZ    0.999995  -0.000000   0.000001  -0.000000   0.000000
   63  C  7 XY   -0.000000   0.999986  -0.000000   0.000001  -0.000002
   64  C  7 XZ    0.000001  -0.000000   0.999986   0.000001  -0.000001
   65  C  7 YZ   -0.000000   0.000001   0.000001   0.999995   0.000000
   66  N  8  S    0.000000  -0.000002  -0.000001   0.000000   0.999866
   67  N  8  S    0.000261  -0.000809  -0.000460   0.000060   0.222226
   68  N  8  X   -0.000672   0.001966   0.001119  -0.000155   0.005360
   69  N  8  Y    0.000087   0.000769  -0.000155  -0.000057  -0.000981
   70  N  8  Z   -0.000039  -0.000155   0.000953  -0.000124  -0.000213
   71  N  8  S    0.022937  -0.008955  -0.005097   0.000661   0.171869
   72  N  8  X   -0.074212   0.024598   0.014000  -0.002138   0.000638
   73  N  8  Y    0.009623   0.029988  -0.002138  -0.002213  -0.000117
   74  N  8  Z    0.002601  -0.002138   0.032528  -0.004218  -0.000025
   75  N  8  S    0.122719  -0.005141  -0.002926   0.000379   0.072359
   76  N  8  X   -0.255347   0.006121   0.003484  -0.000790   0.000151
   77  N  8  Y    0.033111   0.033904  -0.000790  -0.002502  -0.000028
   78  N  8  Z    0.015838  -0.000790   0.034841  -0.004518  -0.000006
   79  N  8 XX    0.001889  -0.005439  -0.003096   0.000456   0.050423
   80  N  8 YY    0.000142   0.000270  -0.000265  -0.000020   0.050413
   81  N  8 ZZ    0.000294  -0.000399   0.000191  -0.000025   0.050413
   82  N  8 XY   -0.000399  -0.003376   0.000695   0.000266  -0.000003
   83  N  8 XZ    0.000191   0.000695  -0.004202   0.000582  -0.000001
   84  N  8 YZ   -0.000025   0.000266   0.000582   0.000208   0.000000
   85  H  9  S    0.294783  -0.117944  -0.166240   0.227111   0.000000
   86  H  9  S    0.388973  -0.029555  -0.041657   0.056910   0.000646
   87  H 10  S    0.271897   0.125080   0.244929   0.143246   0.000000
   88  H 10  S    0.383226   0.031347   0.061383   0.035899   0.000644
   89  H 11  S    0.000012  -0.000033  -0.000039   0.000012   0.030310
   90  H 11  S    0.008718  -0.005645  -0.006654   0.002008   0.076739
   91  H 12  S    0.000006   0.000005   0.000023   0.000001   0.030315
   92  H 12  S    0.007778   0.000874   0.003963   0.000157   0.076742

                     21         22         23         24         25

   21  N  2  S    1.000000
   22  N  2  X   -0.000000   1.000000
   23  N  2  Y    0.000000  -0.000000   1.000000
   24  N  2  Z    0.000000  -0.000000   0.000000   1.000000
   25  N  2  S    0.775507   0.000000   0.000000   0.000000   1.000000
   26  N  2  X   -0.000000   0.519296   0.000000  -0.000000   0.000000
   27  N  2  Y    0.000000   0.000000   0.519296   0.000000   0.000000
   28  N  2  Z    0.000000  -0.000000   0.000000   0.519296   0.000000
   29  N  2  S    0.409558   0.000000   0.000000   0.000000   0.774942
   30  N  2  X    0.000000   0.168972  -0.000000  -0.000000   0.000000
   31  N  2  Y   -0.000000  -0.000000   0.168972   0.000000   0.000000
   32  N  2  Z   -0.000000  -0.000000   0.000000   0.168972   0.000000
   33  N  2 XX    0.636041   0.000000   0.000000  -0.000000   0.670250
   34  N  2 YY    0.636041   0.000000   0.000000  -0.000000   0.670250
   35  N  2 ZZ    0.636041   0.000000   0.000000   0.000000   0.670250
   36  N  2 XY    0.000000   0.000000   0.000000   0.000000   0.000000
   37  N  2 XZ    0.000000  -0.000000   0.000000   0.000000  -0.000000
   38  N  2 YZ    0.000000   0.000000  -0.000000   0.000000   0.000000
   39  H  3  S    0.000005  -0.000014   0.000004   0.000005   0.002736
   40  H  3  S    0.007119  -0.008263   0.002661   0.002982   0.041411
   41  H  4  S    0.000005  -0.000015  -0.000000  -0.000003   0.002728
   42  H  4  S    0.007101  -0.008977  -0.000271  -0.001795   0.041341
   43  H  5  S    0.239263   0.120509  -0.153720  -0.235842   0.391715
   44  H  5  S    0.410962   0.076617  -0.097732  -0.149943   0.689051
   45  H  6  S    0.239290   0.188894   0.123635   0.206938   0.391735
   46  H  6  S    0.410979   0.120084   0.078598   0.131556   0.689071
   47  C  7  S    0.000001  -0.000005   0.000001   0.000000   0.003611
   48  C  7  S    0.002010  -0.004286   0.000556   0.000316   0.042710
   49  C  7  X    0.005043  -0.010029   0.001412   0.000803   0.057469
   50  C  7  Y   -0.000654   0.001412   0.000672  -0.000104  -0.007458
   51  C  7  Z   -0.000372   0.000803  -0.000104   0.000796  -0.004238
   52  C  7  S    0.044311  -0.046267   0.006004   0.003412   0.148434
   53  C  7  X    0.131548  -0.114981   0.018210   0.010347   0.301850
   54  C  7  Y   -0.017072   0.018210   0.022977  -0.001343  -0.039173
   55  C  7  Z   -0.009700   0.010347  -0.001343   0.024577  -0.022258
   56  C  7  S    0.139230  -0.044777   0.005811   0.003302   0.314098
   57  C  7  X    0.244335  -0.030999   0.010269   0.005835   0.484356
   58  C  7  Y   -0.031709   0.010269   0.046799  -0.000757  -0.062857
   59  C  7  Z   -0.018017   0.005835  -0.000757   0.047702  -0.035716
   60  C  7 XX    0.003833  -0.008753   0.001292   0.000734   0.062529
   61  C  7 YY    0.000301  -0.000776  -0.000055   0.000057   0.023363
   62  C  7 ZZ    0.000260  -0.000670   0.000087  -0.000039   0.022909
   63  C  7 XY   -0.000808   0.001963   0.000766  -0.000155  -0.008954
   64  C  7 XZ   -0.000459   0.001115  -0.000155   0.000950  -0.005088
   65  C  7 YZ    0.000060  -0.000155  -0.000056  -0.000123   0.000660
   66  N  8  S    0.222226  -0.005360   0.000981   0.000213   0.171869
   67  N  8  S    0.999992  -0.002452   0.000449   0.000098   0.775505
   68  N  8  X    0.002452   0.999967   0.000004   0.000001   0.000996
   69  N  8  Y   -0.000449   0.000004   0.999988  -0.000000  -0.000182
   70  N  8  Z   -0.000098   0.000001  -0.000000   0.999989  -0.000040
   71  N  8  S    0.775505  -0.000996   0.000182   0.000040   0.999998
   72  N  8  X    0.002286   0.519291   0.000001   0.000000   0.001917
   73  N  8  Y   -0.000418   0.000001   0.519294  -0.000000  -0.000351
   74  N  8  Z   -0.000091   0.000000  -0.000000   0.519294  -0.000076
   75  N  8  S    0.409557  -0.000178   0.000033   0.000007   0.774941
   76  N  8  X    0.000792   0.168972   0.000000   0.000000   0.001253
   77  N  8  Y   -0.000145   0.000000   0.168972  -0.000000  -0.000229
   78  N  8  Z   -0.000032   0.000000  -0.000000   0.168972  -0.000050
   79  N  8 XX    0.636042   0.002778   0.000334   0.000073   0.670249
   80  N  8 YY    0.636037  -0.001828  -0.000508   0.000073   0.670248
   81  N  8 ZZ    0.636037  -0.001828   0.000334  -0.000111   0.670248
   82  N  8 XY   -0.000002  -0.000730   0.003988  -0.000000  -0.000000
   83  N  8 XZ   -0.000000  -0.000159  -0.000000   0.003988  -0.000000
   84  N  8 YZ    0.000000  -0.000000  -0.000159  -0.000730   0.000000
   85  H  9  S    0.000006  -0.000015   0.000005   0.000006   0.002879
   86  H  9  S    0.007424  -0.008580   0.002765   0.003108   0.042631
   87  H 10  S    0.000006  -0.000017  -0.000001  -0.000003   0.002871
   88  H 10  S    0.007406  -0.009324  -0.000290  -0.001870   0.042560
   89  H 11  S    0.240679   0.118655  -0.155097  -0.237664   0.392769
   90  H 11  S    0.411853   0.075110  -0.098178  -0.150444   0.690091
   91  H 12  S    0.240702   0.187682   0.124838   0.209338   0.392786
   92  H 12  S    0.411867   0.118797   0.079018   0.132504   0.690107

                     26         27         28         29         30

   26  N  2  X    1.000000
   27  N  2  Y    0.000000   1.000000
   28  N  2  Z    0.000000   0.000000   1.000000
   29  N  2  S    0.000000   0.000000   0.000000   1.000000
   30  N  2  X    0.653805   0.000000   0.000000   0.000000   1.000000
   31  N  2  Y    0.000000   0.653805   0.000000   0.000000   0.000000
   32  N  2  Z    0.000000   0.000000   0.653805   0.000000   0.000000
   33  N  2 XX    0.000000   0.000000  -0.000000   0.404938  -0.000000
   34  N  2 YY    0.000000   0.000000  -0.000000   0.404938   0.000000
   35  N  2 ZZ    0.000000   0.000000   0.000000   0.404938   0.000000
   36  N  2 XY    0.000000   0.000000   0.000000   0.000000   0.000000
   37  N  2 XZ   -0.000000   0.000000   0.000000   0.000000   0.000000
   38  N  2 YZ    0.000000  -0.000000   0.000000   0.000000   0.000000
   39  H  3  S   -0.010108   0.003255   0.003648   0.051902  -0.127177
   40  H  3  S   -0.087255   0.028098   0.031493   0.175661  -0.336856
   41  H  4  S   -0.010977  -0.000331  -0.002194   0.051846  -0.138360
   42  H  4  S   -0.094869  -0.002860  -0.018967   0.175513  -0.366561
   43  H  5  S    0.216260  -0.275859  -0.423232   0.312680   0.112719
   44  H  5  S    0.213415  -0.272231  -0.417665   0.715790   0.201768
   45  H  6  S    0.338955   0.221853   0.371334   0.312686   0.176664
   46  H  6  S    0.334489   0.218930   0.366441   0.715801   0.316230
   47  C  7  S   -0.014102   0.001830   0.001040   0.025769  -0.057100
   48  C  7  S   -0.124300   0.016131   0.009166   0.160671  -0.321000
   49  C  7  X   -0.144219   0.022360   0.012705   0.085639  -0.097344
   50  C  7  Y    0.022360   0.025175  -0.001649  -0.011114   0.022524
   51  C  7  Z    0.012705  -0.001649   0.027140  -0.006315   0.012798
   52  C  7  S   -0.269257   0.034943   0.019855   0.330751  -0.539119
   53  C  7  X   -0.400082   0.071059   0.040376   0.331786  -0.245535
   54  C  7  Y    0.071059   0.138248  -0.005240  -0.043058   0.070183
   55  C  7  Z    0.040376  -0.005240   0.144493  -0.024465   0.039878
   56  C  7  S   -0.220142   0.028569   0.016233   0.576073  -0.526506
   57  C  7  X   -0.102837   0.044055   0.025032   0.635941  -0.015272
   58  C  7  Y    0.044055   0.230917  -0.003249  -0.082529   0.075428
   59  C  7  Z    0.025032  -0.003249   0.234788  -0.046893   0.042858
   60  C  7 XX   -0.163421   0.026260   0.014921   0.145431  -0.261917
   61  C  7 YY   -0.075604   0.004760   0.005575   0.122927  -0.255824
   62  C  7 ZZ   -0.074133   0.009621   0.002596   0.122666  -0.255281
   63  C  7 XY    0.024602   0.029950  -0.002137  -0.005145   0.006128
   64  C  7 XZ    0.013979  -0.002137   0.032496  -0.002923   0.003482
   65  C  7 YZ   -0.002137  -0.002208  -0.004217   0.000379  -0.000790
   66  N  8  S   -0.000638   0.000117   0.000025   0.072359  -0.000151
   67  N  8  S   -0.002286   0.000418   0.000091   0.409557  -0.000792
   68  N  8  X    0.519291   0.000001   0.000000   0.000178   0.168972
   69  N  8  Y    0.000001   0.519294  -0.000000  -0.000033   0.000000
   70  N  8  Z    0.000000  -0.000000   0.519294  -0.000007   0.000000
   71  N  8  S   -0.001917   0.000351   0.000076   0.774941  -0.001253
   72  N  8  X    0.999994   0.000001   0.000000   0.000688   0.653803
   73  N  8  Y    0.000001   0.999998  -0.000000  -0.000126   0.000000
   74  N  8  Z    0.000000  -0.000000   0.999998  -0.000027   0.000000
   75  N  8  S   -0.000688   0.000126   0.000027   0.999999  -0.001052
   76  N  8  X    0.653803   0.000000   0.000000   0.001052   0.999998
   77  N  8  Y    0.000000   0.653805  -0.000000  -0.000193   0.000000
   78  N  8  Z    0.000000  -0.000000   0.653805  -0.000042   0.000000
   79  N  8 XX   -0.000955   0.000372   0.000081   0.404938  -0.000663
   80  N  8 YY   -0.002031   0.000175   0.000081   0.404938  -0.000789
   81  N  8 ZZ   -0.002031   0.000372   0.000038   0.404938  -0.000789
   82  N  8 XY   -0.000171   0.000933  -0.000000  -0.000000  -0.000020
   83  N  8 XZ   -0.000037  -0.000000   0.000933  -0.000000  -0.000004
   84  N  8 YZ   -0.000000  -0.000037  -0.000171   0.000000  -0.000000
   85  H  9  S   -0.010584   0.003411   0.003833   0.052873  -0.128906
   86  H  9  S   -0.089373   0.028805   0.032370   0.178228  -0.340059
   87  H 10  S   -0.011497  -0.000357  -0.002306   0.052817  -0.140284
   88  H 10  S   -0.097204  -0.003022  -0.019495   0.178080  -0.370159
   89  H 11  S    0.212106  -0.277250  -0.424846   0.312981   0.110362
   90  H 11  S    0.209067  -0.273276  -0.418757   0.716330   0.197508
   91  H 12  S    0.335479   0.223145   0.374188   0.312986   0.174549
   92  H 12  S    0.330664   0.219943   0.368819   0.716338   0.312380

                     31         32         33         34         35

   31  N  2  Y    1.000000
   32  N  2  Z    0.000000   1.000000
   33  N  2 XX    0.000000   0.000000   1.000000
   34  N  2 YY    0.000000   0.000000   0.333333   1.000000
   35  N  2 ZZ    0.000000   0.000000   0.333333   0.333333   1.000000
   36  N  2 XY    0.000000   0.000000   0.000000   0.000000   0.000000
   37  N  2 XZ    0.000000   0.000000   0.000000   0.000000   0.000000
   38  N  2 YZ    0.000000   0.000000   0.000000   0.000000   0.000000
   39  H  3  S    0.040954   0.045903   0.000040   0.000006   0.000007
   40  H  3  S    0.108475   0.121584   0.015019   0.006904   0.007145
   41  H  4  S   -0.004172  -0.027662   0.000046   0.000002   0.000004
   42  H  4  S   -0.011052  -0.073285   0.016663   0.005960   0.006379
   43  H  5  S   -0.143783  -0.220596   0.187873   0.222550   0.344359
   44  H  5  S   -0.257374  -0.394871   0.379226   0.386777   0.413304
   45  H  6  S    0.115630   0.193540   0.268433   0.190787   0.295625
   46  H  6  S    0.206979   0.346439   0.396779   0.379871   0.402701
   47  C  7  S    0.007410   0.004210   0.000018   0.000000   0.000000
   48  C  7  S    0.041658   0.023670   0.010659   0.001262   0.001153
   49  C  7  X    0.022524   0.012798   0.023556   0.003216   0.002936
   50  C  7  Y    0.073291  -0.001661  -0.003554   0.000079  -0.000381
   51  C  7  Z   -0.001661   0.075271  -0.002019  -0.000237   0.000066
   52  C  7  S    0.069964   0.039754   0.081603   0.038496   0.037996
   53  C  7  X    0.070183   0.039878   0.198062   0.116093   0.114585
   54  C  7  Y    0.286163  -0.005175  -0.031936  -0.008833  -0.014870
   55  C  7  Z   -0.005175   0.292331  -0.018146  -0.008560  -0.004908
   56  C  7  S    0.068328   0.038824   0.152405   0.140052   0.139909
   57  C  7  X    0.075428   0.042858   0.241835   0.247056   0.246803
   58  C  7  Y    0.556163  -0.005562  -0.034890  -0.028556  -0.032029
   59  C  7  Z   -0.005562   0.562791  -0.019824  -0.018218  -0.016207
   60  C  7 XX    0.039277   0.022317   0.022843   0.002197   0.001884
   61  C  7 YY    0.027913   0.018864   0.002197   0.000262   0.000142
   62  C  7 ZZ    0.033129   0.015820   0.001884   0.000142   0.000293
   63  C  7 XY    0.033892  -0.000790  -0.005432   0.000269  -0.000398
   64  C  7 XZ   -0.000790   0.034833  -0.003086  -0.000264   0.000191
   65  C  7 YZ   -0.002499  -0.004520   0.000455  -0.000020  -0.000025
   66  N  8  S    0.000028   0.000006   0.050423   0.050413   0.050413
   67  N  8  S    0.000145   0.000032   0.636042   0.636037   0.636037
   68  N  8  X    0.000000   0.000000  -0.002778   0.001828   0.001828
   69  N  8  Y    0.168972  -0.000000  -0.000334   0.000508  -0.000334
   70  N  8  Z   -0.000000   0.168972  -0.000073  -0.000073   0.000111
   71  N  8  S    0.000229   0.000050   0.670249   0.670248   0.670248
   72  N  8  X    0.000000   0.000000   0.000955   0.002031   0.002031
   73  N  8  Y    0.653805  -0.000000  -0.000372  -0.000175  -0.000372
   74  N  8  Z   -0.000000   0.653805  -0.000081  -0.000081  -0.000038
   75  N  8  S    0.000193   0.000042   0.404938   0.404938   0.404938
   76  N  8  X    0.000000   0.000000   0.000663   0.000789   0.000789
   77  N  8  Y    0.999999  -0.000000  -0.000144  -0.000121  -0.000144
   78  N  8  Z   -0.000000   0.999999  -0.000031  -0.000031  -0.000026
   79  N  8 XX    0.000144   0.000031   0.999984   0.333336   0.333336
   80  N  8 YY    0.000121   0.000031   0.333336   0.999993   0.333331
   81  N  8 ZZ    0.000144   0.000026   0.333336   0.333331   0.999993
   82  N  8 XY    0.000109  -0.000000   0.000001   0.000001  -0.000001
   83  N  8 XZ   -0.000000   0.000109   0.000000  -0.000000   0.000000
   84  N  8 YZ   -0.000004  -0.000020   0.000000  -0.000000  -0.000000
   85  H  9  S    0.041546   0.046689   0.000044   0.000007   0.000008
   86  H  9  S    0.109601   0.123167   0.015577   0.007196   0.007451
   87  H 10  S   -0.004361  -0.028136   0.000051   0.000003   0.000005
   88  H 10  S   -0.011507  -0.074240   0.017282   0.006220   0.006655
   89  H 11  S   -0.144257  -0.221053   0.186637   0.224377   0.347060
   90  H 11  S   -0.258168  -0.395606   0.379543   0.387724   0.414321
   91  H 12  S    0.116102   0.194690   0.266632   0.192339   0.299155
   92  H 12  S    0.207781   0.348424   0.396893   0.380788   0.403943

                     36         37         38         39         40

   36  N  2 XY    1.000000
   37  N  2 XZ    0.000000   1.000000
   38  N  2 YZ    0.000000   0.000000   1.000000
   39  H  3  S   -0.000021  -0.000023   0.000008   1.000000
   40  H  3  S   -0.005050  -0.005660   0.001823   0.658292   1.000000
   41  H  4  S    0.000002   0.000015   0.000000   0.010132   0.117362
   42  H  4  S    0.000559   0.003710   0.000112   0.117362   0.346423
   43  H  5  S   -0.122166  -0.187431   0.239086   0.000000   0.000446
   44  H  5  S   -0.026605  -0.040818   0.052067   0.000446   0.010954
   45  H  6  S    0.153995   0.257755   0.168706   0.000001   0.002217
   46  H  6  S    0.033534   0.056128   0.036737   0.002217   0.029697
   47  C  7  S   -0.000004  -0.000002   0.000000   0.028231   0.088507
   48  C  7  S   -0.002149  -0.001221   0.000158   0.253231   0.461119
   49  C  7  X   -0.005095  -0.002895   0.000407  -0.139616  -0.106153
   50  C  7  Y   -0.002597   0.000407   0.000191   0.185204   0.140815
   51  C  7  Z    0.000407  -0.003082   0.000400   0.259905   0.197613
   52  C  7  S   -0.009855  -0.005600   0.000727   0.363793   0.689437
   53  C  7  X   -0.024323  -0.013820   0.002192  -0.205209  -0.235485
   54  C  7  Y   -0.037736   0.002192   0.002783   0.272217   0.312378
   55  C  7  Z    0.002192  -0.040347   0.005236   0.382014   0.438374
   56  C  7  S   -0.002824  -0.001605   0.000208   0.256096   0.635412
   57  C  7  X   -0.001946  -0.001106   0.000367  -0.085779  -0.177939
   58  C  7  Y   -0.022746   0.000367   0.001677   0.113788   0.236041
   59  C  7  Z    0.000367  -0.023184   0.003009   0.159684   0.331247
   60  C  7 XX   -0.005432  -0.003086   0.000455   0.158841   0.352405
   61  C  7 YY    0.000269  -0.000264  -0.000020   0.198279   0.362495
   62  C  7 ZZ   -0.000398   0.000191  -0.000025   0.286832   0.385152
   63  C  7 XY   -0.003365   0.000694   0.000265  -0.119277  -0.030517
   64  C  7 XZ    0.000694  -0.004192   0.000581  -0.167387  -0.042826
   65  C  7 YZ    0.000265   0.000581   0.000208   0.222044   0.056811
   66  N  8  S   -0.000003  -0.000001   0.000000   0.000000   0.000619
   67  N  8  S   -0.000002  -0.000000   0.000000   0.000005   0.007163
   68  N  8  X    0.000730   0.000159   0.000000  -0.000014  -0.008309
   69  N  8  Y   -0.003988   0.000000   0.000159   0.000005   0.002677
   70  N  8  Z    0.000000  -0.003988   0.000730   0.000005   0.003001
   71  N  8  S   -0.000000  -0.000000   0.000000   0.002757   0.041591
   72  N  8  X    0.000171   0.000037   0.000000  -0.010178  -0.087565
   73  N  8  Y   -0.000933   0.000000   0.000037   0.003279   0.028207
   74  N  8  Z    0.000000  -0.000933   0.000171   0.003676   0.031627
   75  N  8  S   -0.000000  -0.000000   0.000000   0.052046   0.176042
   76  N  8  X    0.000020   0.000004   0.000000  -0.127429  -0.337320
   77  N  8  Y   -0.000109   0.000000   0.000004   0.041049   0.108661
   78  N  8  Z    0.000000  -0.000109   0.000020   0.046026   0.121837
   79  N  8 XX    0.000001   0.000000   0.000000   0.000040   0.015100
   80  N  8 YY    0.000001  -0.000000  -0.000000   0.000006   0.006947
   81  N  8 ZZ   -0.000001   0.000000  -0.000000   0.000007   0.007190
   82  N  8 XY    0.999978  -0.000000   0.000001  -0.000021  -0.005076
   83  N  8 XZ   -0.000000   0.999979   0.000003  -0.000024  -0.005691
   84  N  8 YZ    0.000001   0.000003   0.999992   0.000008   0.001833
   85  H  9  S   -0.000023  -0.000026   0.000008   0.999643   0.658225
   86  H  9  S   -0.005221  -0.005867   0.001891   0.658225   0.999938
   87  H 10  S    0.000003   0.000017   0.000001   0.010195   0.117655
   88  H 10  S    0.000596   0.003847   0.000120   0.117655   0.346956
   89  H 11  S   -0.120586  -0.184781   0.241532   0.000000   0.000456
   90  H 11  S   -0.026142  -0.040059   0.052362   0.000456   0.011117
   91  H 12  S    0.153509   0.257416   0.171221   0.000001   0.002280
   92  H 12  S    0.033277   0.055801   0.037116   0.002280   0.030222

                     41         42         43         44         45

   41  H  4  S    1.000000
   42  H  4  S    0.658292   1.000000
   43  H  5  S    0.000001   0.002202   1.000000
   44  H  5  S    0.002202   0.029576   0.658292   1.000000
   45  H  6  S    0.000000   0.000446   0.016871   0.143971   1.000000
   46  H  6  S    0.000446   0.010958   0.143971   0.392903   0.658292
   47  C  7  S    0.028221   0.088499   0.000000   0.001020   0.000000
   48  C  7  S    0.253188   0.461086   0.000054   0.013632   0.000054
   49  C  7  X   -0.217013  -0.165020   0.000145   0.017328   0.000158
   50  C  7  Y   -0.123187  -0.093674  -0.000044  -0.005208   0.000006
   51  C  7  Z   -0.242987  -0.184771  -0.000051  -0.006141   0.000028
   52  C  7  S    0.363764   0.689404   0.007486   0.064822   0.007503
   53  C  7  X   -0.319006  -0.366082   0.025677   0.135948   0.027910
   54  C  7  Y   -0.181084  -0.207807  -0.007717  -0.040857   0.001092
   55  C  7  Z   -0.357188  -0.409899  -0.009100  -0.048181   0.004970
   56  C  7  S    0.256090   0.635399   0.078604   0.236664   0.078657
   57  C  7  X   -0.133354  -0.276629   0.161616   0.406936   0.175396
   58  C  7  Y   -0.075698  -0.157028  -0.048571  -0.122298   0.006863
   59  C  7  Z   -0.149315  -0.309739  -0.057277  -0.144220   0.031234
   60  C  7 XX    0.232349   0.371196   0.000064   0.017901   0.000075
   61  C  7 YY    0.147326   0.349440   0.000009   0.008192   0.000004
   62  C  7 ZZ    0.264175   0.379340   0.000011   0.008568   0.000006
   63  C  7 XY    0.123337   0.031561  -0.000031  -0.005556   0.000005
   64  C  7 XZ    0.243281   0.062254  -0.000037  -0.006552   0.000022
   65  C  7 YZ    0.138099   0.035338   0.000011   0.001969   0.000001
   66  N  8  S    0.000000   0.000617   0.029871   0.076438   0.029876
   67  N  8  S    0.000005   0.007146   0.238534   0.410501   0.238561
   68  N  8  X   -0.000015  -0.009028   0.120741   0.076938   0.188894
   69  N  8  Y   -0.000000  -0.000274  -0.153315  -0.097694   0.123097
   70  N  8  Z   -0.000003  -0.001806  -0.235065  -0.149786   0.206209
   71  N  8  S    0.002749   0.041521   0.391170   0.688513   0.391191
   72  N  8  X   -0.011053  -0.095213   0.217112   0.214389   0.339637
   73  N  8  Y   -0.000335  -0.002885  -0.275685  -0.272227   0.221332
   74  N  8  Z   -0.002212  -0.019052  -0.422686  -0.417384   0.370770
   75  N  8  S    0.051990   0.175894   0.312524   0.715511   0.312530
   76  N  8  X   -0.138644  -0.367091   0.113265   0.202768   0.177178
   77  N  8  Y   -0.004202  -0.011125  -0.143822  -0.257471   0.115462
   78  N  8  Z   -0.027742  -0.073454  -0.220510  -0.394760   0.193420
   79  N  8 XX    0.000047   0.016754   0.187861   0.378921   0.268475
   80  N  8 YY    0.000002   0.005998   0.221964   0.386366   0.190064
   81  N  8 ZZ    0.000004   0.006419   0.343257   0.412842   0.294607
   82  N  8 XY    0.000002   0.000565  -0.122486  -0.026737   0.153836
   83  N  8 XZ    0.000015   0.003731  -0.187798  -0.040994   0.257702
   84  N  8 YZ    0.000000   0.000113   0.238462   0.052053   0.167937
   85  H  9  S    0.010196   0.117656   0.000000   0.000468   0.000001
   86  H  9  S    0.117656   0.346959   0.000468   0.011297   0.002324
   87  H 10  S    0.999641   0.658225   0.000001   0.002309   0.000000
   88  H 10  S    0.658225   0.999938   0.002309   0.030456   0.000469
   89  H 11  S    0.000001   0.002265   0.999862   0.658266   0.016688
   90  H 11  S    0.002265   0.030099   0.658266   0.999976   0.143346
   91  H 12  S    0.000000   0.000457   0.016688   0.143344   0.999861
   92  H 12  S    0.000457   0.011120   0.143344   0.391848   0.658266

                     46         47         48         49         50

   46  H  6  S    1.000000
   47  C  7  S    0.001023   1.000000
   48  C  7  S    0.013659   0.219059   1.000000
   49  C  7  X    0.018832  -0.000000   0.000000   1.000000
   50  C  7  Y    0.000737   0.000000   0.000000  -0.000000   1.000000
   51  C  7  Z    0.003353   0.000000  -0.000000  -0.000000   0.000000
   52  C  7  S    0.064910   0.184261   0.812273   0.000000   0.000000
   53  C  7  X    0.147640   0.000000  -0.000000   0.569754   0.000000
   54  C  7  Y    0.005777  -0.000000   0.000000   0.000000   0.569754
   55  C  7  Z    0.026291  -0.000000   0.000000   0.000000   0.000000
   56  C  7  S    0.236797   0.069772   0.402091   0.000000  -0.000000
   57  C  7  X    0.441586   0.000000   0.000000   0.164679  -0.000000
   58  C  7  Y    0.017280   0.000000   0.000000  -0.000000   0.164679
   59  C  7  Z    0.078635   0.000000   0.000000  -0.000000   0.000000
   60  C  7 XX    0.019825   0.079103   0.710235   0.000000   0.000000
   61  C  7 YY    0.007263   0.079103   0.710235   0.000000   0.000000
   62  C  7 ZZ    0.007643   0.079103   0.710235   0.000000   0.000000
   63  C  7 XY    0.000853   0.000000   0.000000   0.000000   0.000000
   64  C  7 XZ    0.003881   0.000000  -0.000000  -0.000000   0.000000
   65  C  7 YZ    0.000152   0.000000  -0.000000   0.000000  -0.000000
   66  N  8  S    0.076442   0.000000   0.000016   0.000062  -0.000008
   67  N  8  S    0.410518   0.000001   0.002035   0.005099  -0.000661
   68  N  8  X    0.120355  -0.000005  -0.004334  -0.010132   0.001427
   69  N  8  Y    0.078432   0.000001   0.000562   0.001427   0.000681
   70  N  8  Z    0.131388   0.000000   0.000320   0.000811  -0.000105
   71  N  8  S    0.688533   0.003639   0.042955   0.057755  -0.007492
   72  N  8  X    0.335369  -0.014197  -0.124894  -0.144751   0.022442
   73  N  8  Y    0.218550   0.001842   0.016202   0.022442   0.025332
   74  N  8  Z    0.366110   0.001047   0.009213   0.012762  -0.001656
   75  N  8  S    0.715522   0.025831   0.161018   0.085747  -0.011124
   76  N  8  X    0.317186  -0.057184  -0.321392  -0.097232   0.022522
   77  N  8  Y    0.206701   0.007418   0.041693   0.022522   0.073460
   78  N  8  Z    0.346261   0.004218   0.023709   0.012807  -0.001661
   79  N  8 XX    0.396528   0.000018   0.010773   0.023781  -0.003587
   80  N  8 YY    0.379413   0.000000   0.001277   0.003252   0.000080
   81  N  8 ZZ    0.402232   0.000000   0.001167   0.002969  -0.000385
   82  N  8 XY    0.033577  -0.000004  -0.002170  -0.005141  -0.002628
   83  N  8 XZ    0.056248  -0.000002  -0.001234  -0.002924   0.000411
   84  N  8 YZ    0.036655   0.000000   0.000160   0.000411   0.000194
   85  H  9  S    0.002324   0.029368   0.258535  -0.138472   0.188427
   86  H  9  S    0.030578   0.089478   0.465079  -0.103751   0.141181
   87  H 10  S    0.000469   0.029359   0.258494  -0.217598  -0.126893
   88  H 10  S    0.011300   0.089470   0.465049  -0.163056  -0.095087
   89  H 11  S    0.143346   0.000000   0.000056   0.000152  -0.000046
   90  H 11  S    0.391851   0.001047   0.013910   0.017632  -0.005324
   91  H 12  S    0.658266   0.000000   0.000056   0.000166   0.000007
   92  H 12  S    0.999976   0.001049   0.013938   0.019170   0.000761

                     51         52         53         54         55

   51  C  7  Z    1.000000
   52  C  7  S    0.000000   1.000000
   53  C  7  X    0.000000   0.000000   1.000000
   54  C  7  Y    0.000000   0.000000   0.000000   1.000000
   55  C  7  Z    0.569754   0.000000   0.000000   0.000000   1.000000
   56  C  7  S   -0.000000   0.727666   0.000000   0.000000   0.000000
   57  C  7  X   -0.000000   0.000000   0.588690   0.000000   0.000000
   58  C  7  Y    0.000000   0.000000   0.000000   0.588690   0.000000
   59  C  7  Z    0.164679   0.000000   0.000000   0.000000   0.588690
   60  C  7 XX   -0.000000   0.629936   0.000000   0.000000   0.000000
   61  C  7 YY   -0.000000   0.629936   0.000000   0.000000   0.000000
   62  C  7 ZZ   -0.000000   0.629936   0.000000   0.000000   0.000000
   63  C  7 XY    0.000000   0.000000   0.000000   0.000000   0.000000
   64  C  7 XZ    0.000000   0.000000   0.000000   0.000000   0.000000
   65  C  7 YZ    0.000000   0.000000   0.000000   0.000000   0.000000
   66  N  8  S   -0.000005   0.005328   0.018923  -0.002455  -0.001396
   67  N  8  S   -0.000376   0.044542   0.132110  -0.017138  -0.009746
   68  N  8  X    0.000811  -0.046471  -0.115331   0.018266   0.010387
   69  N  8  Y   -0.000105   0.006028   0.018266   0.023106  -0.001348
   70  N  8  Z    0.000806   0.003428   0.010387  -0.001348   0.024709
   71  N  8  S   -0.004261   0.148964   0.302645  -0.039261  -0.022326
   72  N  8  X    0.012762  -0.269966  -0.400483   0.071152   0.040461
   73  N  8  Y   -0.001656   0.035021   0.071152   0.138767  -0.005249
   74  N  8  Z    0.027301   0.019915   0.040461  -0.005249   0.145012
   75  N  8  S   -0.006326   0.331334   0.332060  -0.043077  -0.024496
   76  N  8  X    0.012807  -0.539563  -0.244954   0.070148   0.039891
   77  N  8  Y   -0.001661   0.069995   0.070148   0.286691  -0.005175
   78  N  8  Z    0.075436   0.039804   0.039891  -0.005175   0.292849
   79  N  8 XX   -0.002040   0.081953   0.198677  -0.032031  -0.018215
   80  N  8 YY   -0.000240   0.038698   0.116593  -0.008868  -0.008601
   81  N  8 ZZ    0.000066   0.038197   0.115084  -0.014929  -0.004931
   82  N  8 XY    0.000411  -0.009885  -0.024364  -0.037911   0.002197
   83  N  8 XZ   -0.003118  -0.005621  -0.013855   0.002197  -0.040525
   84  N  8 YZ    0.000404   0.000729   0.002197   0.002797   0.005257
   85  H  9  S    0.265602   0.367280  -0.200698   0.273103   0.384959
   86  H  9  S    0.199006   0.693431  -0.229436   0.312209   0.440081
   87  H 10  S   -0.248481   0.367253  -0.315417  -0.183936  -0.360183
   88  H 10  S   -0.186198   0.693401  -0.360592  -0.210279  -0.411769
   89  H 11  S   -0.000054   0.007654   0.026167  -0.007901  -0.009312
   90  H 11  S   -0.006275   0.065704   0.137349  -0.041474  -0.048881
   91  H 12  S    0.000030   0.007670   0.028455   0.001129   0.005115
   92  H 12  S    0.003446   0.065792   0.149230   0.005922   0.026824

                     56         57         58         59         60

   56  C  7  S    1.000000
   57  C  7  X    0.000000   1.000000
   58  C  7  Y    0.000000   0.000000   1.000000
   59  C  7  Z   -0.000000   0.000000   0.000000   1.000000
   60  C  7 XX    0.323540   0.000000   0.000000   0.000000   1.000000
   61  C  7 YY    0.323540   0.000000   0.000000   0.000000   0.333333
   62  C  7 ZZ    0.323540   0.000000   0.000000   0.000000   0.333333
   63  C  7 XY    0.000000   0.000000   0.000000   0.000000   0.000000
   64  C  7 XZ    0.000000   0.000000   0.000000   0.000000   0.000000
   65  C  7 YZ    0.000000   0.000000   0.000000   0.000000   0.000000
   66  N  8  S    0.022788   0.042064  -0.005457  -0.003103   0.000008
   67  N  8  S    0.139448   0.244490  -0.031717  -0.018036   0.003884
   68  N  8  X   -0.044806  -0.030900   0.010262   0.005836  -0.008859
   69  N  8  Y    0.005813   0.010262   0.046877  -0.000757   0.001307
   70  N  8  Z    0.003305   0.005836  -0.000757   0.047778   0.000743
   71  N  8  S    0.314531   0.484570  -0.062861  -0.035747   0.062853
   72  N  8  X   -0.220239  -0.102342   0.044016   0.025030  -0.164068
   73  N  8  Y    0.028571   0.044016   0.231251  -0.003247   0.026361
   74  N  8  Z    0.016247   0.025030  -0.003247   0.235114   0.014990
   75  N  8  S    0.576642   0.635973  -0.082502  -0.046916   0.145715
   76  N  8  X   -0.526533  -0.014197   0.075333   0.042839  -0.262171
   77  N  8  Y    0.068305   0.075333   0.556738  -0.005557   0.039302
   78  N  8  Z    0.038842   0.042839  -0.005557   0.563350   0.022350
   79  N  8 XX    0.152622   0.241949  -0.034893  -0.019843   0.023101
   80  N  8 YY    0.140273   0.247213  -0.028563  -0.018237   0.002226
   81  N  8 ZZ    0.140130   0.246961  -0.032037  -0.016224   0.001910
   82  N  8 XY   -0.002822  -0.001937  -0.022763   0.000367  -0.005491
   83  N  8 XZ   -0.001605  -0.001102   0.000367  -0.023199  -0.003123
   84  N  8 YZ    0.000208   0.000367   0.001679   0.003010   0.000460
   85  H  9  S    0.256836  -0.083334   0.113398   0.159843   0.159789
   86  H  9  S    0.636947  -0.172786   0.235121   0.331420   0.354908
   87  H 10  S    0.256831  -0.130974  -0.076378  -0.149563   0.233417
   88  H 10  S    0.636935  -0.271565  -0.158363  -0.310107   0.373379
   89  H 11  S    0.079137   0.162181  -0.048972  -0.057718   0.000068
   90  H 11  S    0.238004   0.407908  -0.123172  -0.145168   0.018228
   91  H 12  S    0.079189   0.176092   0.006987   0.031652   0.000079
   92  H 12  S    0.238136   0.442849   0.017573   0.079601   0.020194

                     61         62         63         64         65

   61  C  7 YY    1.000000
   62  C  7 ZZ    0.333333   1.000000
   63  C  7 XY    0.000000   0.000000   1.000000
   64  C  7 XZ    0.000000   0.000000   0.000000   1.000000
   65  C  7 YZ    0.000000   0.000000   0.000000   0.000000   1.000000
   66  N  8  S    0.000000   0.000000  -0.000002  -0.000001   0.000000
   67  N  8  S    0.000305   0.000264  -0.000818  -0.000465   0.000060
   68  N  8  X   -0.000787  -0.000679   0.001986   0.001129  -0.000157
   69  N  8  Y   -0.000056   0.000088   0.000778  -0.000157  -0.000057
   70  N  8  Z    0.000058  -0.000040  -0.000157   0.000964  -0.000125
   71  N  8  S    0.023510   0.023055  -0.008991  -0.005113   0.000663
   72  N  8  X   -0.076009  -0.074536   0.024672   0.014030  -0.002144
   73  N  8  Y    0.004783   0.009669   0.030123  -0.002144  -0.002222
   74  N  8  Z    0.005607   0.002611  -0.002144   0.032674  -0.004239
   75  N  8  S    0.123203   0.122942  -0.005145  -0.002926   0.000380
   76  N  8  X   -0.256158  -0.255616   0.006114   0.003477  -0.000789
   77  N  8  Y    0.027938   0.033160   0.033940  -0.000789  -0.002504
   78  N  8  Z    0.018897   0.015847  -0.000789   0.034879  -0.004525
   79  N  8 XX    0.002226   0.001910  -0.005491  -0.003123   0.000460
   80  N  8 YY    0.000266   0.000144   0.000273  -0.000267  -0.000020
   81  N  8 ZZ    0.000144   0.000297  -0.000404   0.000193  -0.000025
   82  N  8 XY    0.000273  -0.000404  -0.003413   0.000702   0.000269
   83  N  8 XZ   -0.000267   0.000193   0.000702  -0.004248   0.000588
   84  N  8 YZ   -0.000020  -0.000025   0.000269   0.000588   0.000211
   85  H  9  S    0.202467   0.294040  -0.118107  -0.166480   0.226540
   86  H  9  S    0.365623   0.388615  -0.029654  -0.041799   0.056878
   87  H 10  S    0.151743   0.271040   0.125004   0.244783   0.142745
   88  H 10  S    0.352870   0.382827   0.031390   0.061468   0.035845
   89  H 11  S    0.000010   0.000012  -0.000033  -0.000039   0.000012
   90  H 11  S    0.008377   0.008762  -0.005669  -0.006682   0.002018
   91  H 12  S    0.000004   0.000007   0.000005   0.000023   0.000001
   92  H 12  S    0.007425   0.007818   0.000879   0.003982   0.000158

                     66         67         68         69         70

   66  N  8  S    1.000000
   67  N  8  S    0.222216   1.000000
   68  N  8  X    0.000000   0.000000   1.000000
   69  N  8  Y   -0.000000  -0.000000  -0.000000   1.000000
   70  N  8  Z   -0.000000   0.000000   0.000000   0.000000   1.000000
   71  N  8  S    0.171869   0.775507   0.000000  -0.000000   0.000000
   72  N  8  X    0.000000   0.000000   0.519296   0.000000   0.000000
   73  N  8  Y   -0.000000   0.000000   0.000000   0.519296   0.000000
   74  N  8  Z   -0.000000  -0.000000   0.000000   0.000000   0.519296
   75  N  8  S    0.072359   0.409558  -0.000000  -0.000000  -0.000000
   76  N  8  X   -0.000000   0.000000   0.168972  -0.000000  -0.000000
   77  N  8  Y   -0.000000  -0.000000  -0.000000   0.168972   0.000000
   78  N  8  Z   -0.000000  -0.000000  -0.000000   0.000000   0.168972
   79  N  8 XX    0.050413   0.636041   0.000000   0.000000  -0.000000
   80  N  8 YY    0.050413   0.636041   0.000000   0.000000  -0.000000
   81  N  8 ZZ    0.050413   0.636041   0.000000   0.000000  -0.000000
   82  N  8 XY   -0.000000   0.000000   0.000000   0.000000   0.000000
   83  N  8 XZ   -0.000000  -0.000000  -0.000000   0.000000   0.000000
   84  N  8 YZ    0.000000   0.000000   0.000000  -0.000000   0.000000
   85  H  9  S    0.000000   0.000006  -0.000016   0.000005   0.000006
   86  H  9  S    0.000651   0.007470  -0.008628   0.002782   0.003127
   87  H 10  S    0.000000   0.000006  -0.000017  -0.000001  -0.000003
   88  H 10  S    0.000649   0.007453  -0.009377  -0.000293  -0.001882
   89  H 11  S    0.030162   0.239957   0.118904  -0.154696  -0.236894
   90  H 11  S    0.076638   0.411399   0.075435  -0.098142  -0.150290
   91  H 12  S    0.030167   0.239980   0.187700   0.124301   0.208611
   92  H 12  S    0.076641   0.411413   0.119072   0.078853   0.132338

                     71         72         73         74         75

   71  N  8  S    1.000000
   72  N  8  X   -0.000000   1.000000
   73  N  8  Y    0.000000   0.000000   1.000000
   74  N  8  Z    0.000000   0.000000   0.000000   1.000000
   75  N  8  S    0.774942  -0.000000   0.000000   0.000000   1.000000
   76  N  8  X   -0.000000   0.653805   0.000000   0.000000   0.000000
   77  N  8  Y    0.000000   0.000000   0.653805   0.000000   0.000000
   78  N  8  Z    0.000000   0.000000   0.000000   0.653805   0.000000
   79  N  8 XX    0.670250   0.000000  -0.000000  -0.000000   0.404938
   80  N  8 YY    0.670250   0.000000  -0.000000  -0.000000   0.404938
   81  N  8 ZZ    0.670250   0.000000  -0.000000  -0.000000   0.404938
[...]
   53  C  7  X   -0.000000   0.000000   0.421786
   54  C  7  Y   -0.000000   0.000000   0.000000   0.421786
   55  C  7  Z    0.376673   0.000000   0.000000   0.000000   0.421786
   56  C  7  S   -0.000000   0.075909   0.000000   0.000000   0.000000
   57  C  7  X    0.000000   0.000000   0.102352   0.000000   0.000000
   58  C  7  Y    0.000000   0.000000   0.000000   0.102352   0.000000
   59  C  7  Z    0.033561   0.000000   0.000000   0.000000   0.102352
   60  C  7 XX   -0.000000   0.226288   0.000000   0.000000   0.000000
   61  C  7 YY   -0.000000   0.226288   0.000000   0.000000   0.000000
   62  C  7 ZZ   -0.000000   0.226288   0.000000   0.000000   0.000000
   63  C  7 XY   -0.000000   0.000000   0.000000   0.000000   0.000000
   64  C  7 XZ    0.000000   0.000000   0.000000   0.000000   0.000000
   65  C  7 YZ    0.000000   0.000000   0.000000   0.000000   0.000000
   66  N  8  S    0.000034  -0.003171  -0.005051   0.000655   0.000373
   67  N  8  S    0.000941  -0.015407  -0.009248   0.001200   0.000682
   68  N  8  X   -0.001606   0.004294  -0.028646   0.003411   0.001940
   69  N  8  Y    0.000208  -0.000557   0.003411  -0.002796  -0.000252
   70  N  8  Z   -0.002123  -0.000317   0.001940  -0.000252  -0.002497
   71  N  8  S    0.000851  -0.011037   0.034447  -0.004469  -0.002541
   72  N  8  X    0.001358  -0.030728  -0.148648   0.021469   0.012208
   73  N  8  Y   -0.000176   0.003986   0.021469   0.014060  -0.001584
   74  N  8  Z   -0.005744   0.002267   0.012208  -0.001584   0.015944
   75  N  8  S   -0.000975   0.017370   0.048188  -0.006251  -0.003555
   76  N  8  X    0.003451  -0.078300  -0.085670   0.016682   0.009486
   77  N  8  Y   -0.000448   0.010158   0.016682   0.040761  -0.001231
   78  N  8  Z    0.011520   0.005776   0.009486  -0.001231   0.042225
   79  N  8 XX    0.003152  -0.007608   0.036596  -0.005952  -0.003385
   80  N  8 YY    0.000683  -0.015935  -0.015522   0.003218   0.001145
   81  N  8 ZZ    0.000084  -0.016032  -0.016233   0.002106   0.001883
   82  N  8 XY   -0.000564  -0.001903  -0.012990  -0.006222   0.001035
   83  N  8 XZ    0.006377  -0.001082  -0.007387   0.001035  -0.007454
   84  N  8 YZ   -0.000827   0.000140   0.001035   0.000459   0.000967
   85  H  9  S    0.160066   0.089426  -0.103748   0.141177   0.198999
   86  H  9  S    0.097926   0.129711  -0.080754   0.109888   0.154895
   87  H 10  S   -0.149720   0.089412  -0.163044  -0.095079  -0.186184
   88  H 10  S   -0.091621   0.129700  -0.126914  -0.074010  -0.144927
   89  H 11  S    0.000230  -0.006111  -0.013926   0.004205   0.004956
   90  H 11  S    0.002632  -0.013243  -0.005033   0.001520   0.001791
   91  H 12  S   -0.000127  -0.006120  -0.015127  -0.000600  -0.002719
   92  H 12  S   -0.001444  -0.013246  -0.005436  -0.000216  -0.000977

                     56         57         58         59         60

   56  C  7  S    0.065700
   57  C  7  X    0.000000   0.109500
   58  C  7  Y    0.000000   0.000000   0.109500
   59  C  7  Z   -0.000000  -0.000000   0.000000   0.109500
   60  C  7 XX    0.038835   0.000000   0.000000  -0.000000   1.733333
   61  C  7 YY    0.038835   0.000000   0.000000  -0.000000  -0.133333
   62  C  7 ZZ    0.038835   0.000000   0.000000   0.000000  -0.133333
   63  C  7 XY    0.000000   0.000000   0.000000   0.000000   0.000000
   64  C  7 XZ    0.000000  -0.000000   0.000000   0.000000   0.000000
   65  C  7 YZ    0.000000   0.000000  -0.000000   0.000000   0.000000
   66  N  8  S    0.001235   0.005939  -0.000770  -0.000438  -0.000121
   67  N  8  S    0.007687   0.033676  -0.004369  -0.002484  -0.013977
   68  N  8  X   -0.006193  -0.010854   0.002272   0.001292   0.024803
   69  N  8  Y    0.000803   0.002272   0.006368  -0.000168  -0.003771
   70  N  8  Z    0.000457   0.001292  -0.000168   0.006568  -0.002145
   71  N  8  S    0.017540   0.062204  -0.008069  -0.004589  -0.014796
   72  N  8  X   -0.028272  -0.037772   0.008846   0.005030  -0.018699
   73  N  8  Y    0.003668   0.008846   0.029271  -0.000653   0.002631
   74  N  8  Z    0.002086   0.005030  -0.000653   0.030047   0.001496
   75  N  8  S    0.029253   0.065317  -0.008473  -0.004818   0.009552
   76  N  8  X   -0.054077  -0.031640   0.011652   0.006626  -0.044578
   77  N  8  Y    0.007015   0.011652   0.056671  -0.000860   0.007228
   78  N  8  Z    0.003989   0.006626  -0.000860   0.057694   0.004110
   79  N  8 XX    0.009850   0.033722  -0.005150  -0.002929  -0.050881
   80  N  8 YY    0.007119   0.033079  -0.003516  -0.002440  -0.009105
   81  N  8 ZZ    0.007088   0.033002  -0.004281  -0.001994  -0.008412
   82  N  8 XY   -0.000624  -0.000842  -0.004980   0.000112   0.011564
   83  N  8 XZ   -0.000355  -0.000479   0.000112  -0.005113   0.006576
   84  N  8 YZ    0.000046   0.000112   0.000367   0.000663  -0.001009
   85  H  9  S    0.027876  -0.015915   0.021657   0.030526  -0.019879
   86  H  9  S    0.059116  -0.027940   0.038019   0.053591   0.074420
   87  H 10  S    0.027875  -0.025013  -0.014586  -0.028563   0.074599
   88  H 10  S    0.059114  -0.043912  -0.025607  -0.050144   0.088830
   89  H 11  S    0.000912   0.015228  -0.004598  -0.005419  -0.000405
   90  H 11  S    0.005949   0.038297  -0.011564  -0.013629  -0.008923
   91  H 12  S    0.000917   0.016544   0.000656   0.002974  -0.000474
   92  H 12  S    0.005961   0.041594   0.001650   0.007476  -0.009412

                     61         62         63         64         65

   61  C  7 YY    1.733333
   62  C  7 ZZ   -0.133333   1.733333
   63  C  7 XY    0.000000   0.000000   2.800000
   64  C  7 XZ    0.000000   0.000000   0.000000   2.800000
   65  C  7 YZ    0.000000   0.000000   0.000000   0.000000   2.800000
   66  N  8  S   -0.000003  -0.000002   0.000027   0.000015  -0.000002
   67  N  8  S   -0.001626  -0.001483   0.002823   0.001605  -0.000208
   68  N  8  X    0.003596   0.003301  -0.005343  -0.003038   0.000430
   69  N  8  Y    0.000087  -0.000428  -0.002942   0.000430   0.000217
   70  N  8  Z   -0.000265   0.000071   0.000430  -0.003453   0.000448
   71  N  8  S   -0.016388  -0.016407  -0.000364  -0.000207   0.000027
   72  N  8  X    0.027503   0.028057   0.010743   0.006109  -0.000806
   73  N  8  Y   -0.003773  -0.003640  -0.000045  -0.000806   0.000003
   74  N  8  Z   -0.002029  -0.002187  -0.000806   0.000914  -0.000119
   75  N  8  S    0.003406   0.003335  -0.001405  -0.000799   0.000104
   76  N  8  X   -0.037397  -0.037185   0.002935   0.001669  -0.000309
   77  N  8  Y    0.003407   0.004824   0.009102  -0.000309  -0.000671
   78  N  8  Z    0.002759   0.001922  -0.000309   0.009470  -0.001228
   79  N  8 XX   -0.009105  -0.008412   0.011564   0.006576  -0.001009
   80  N  8 YY   -0.001429  -0.000887  -0.000263   0.001056   0.000019
   81  N  8 ZZ   -0.000887  -0.001463   0.001720  -0.000227   0.000029
   82  N  8 XY   -0.000263   0.001720   0.010536  -0.001402  -0.000844
   83  N  8 XZ    0.001056  -0.000227  -0.001402   0.012203  -0.001722
   84  N  8 YZ    0.000019   0.000029  -0.000844  -0.001722  -0.000848
   85  H  9  S    0.034880   0.152373  -0.151538  -0.213603   0.290664
   86  H  9  S    0.082775   0.100703  -0.023122  -0.032592   0.044350
   87  H 10  S   -0.030179   0.122864   0.160365   0.314027   0.183125
   88  H 10  S    0.072839   0.096196   0.024475   0.047927   0.027949
   89  H 11  S   -0.000066  -0.000080   0.000195   0.000230  -0.000069
   90  H 11  S   -0.006461  -0.006557   0.001417   0.001670  -0.000504
   91  H 12  S   -0.000033  -0.000047  -0.000030  -0.000137  -0.000005
   92  H 12  S   -0.006228  -0.006326  -0.000219  -0.000993  -0.000039

                     66         67         68         69         70

   66  N  8  S   22.380850
   67  N  8  S   -1.780337   1.324774
   68  N  8  X   -0.000000  -0.000000   3.132326
   69  N  8  Y   -0.000000   0.000000   0.000000   3.132326
   70  N  8  Z   -0.000000  -0.000000   0.000000  -0.000000   3.132326
   71  N  8  S    0.105796   0.379313  -0.000000  -0.000000   0.000000
   72  N  8  X   -0.000000  -0.000000   0.441948   0.000000   0.000000
   73  N  8  Y   -0.000000  -0.000000   0.000000   0.441948   0.000000
   74  N  8  Z   -0.000000  -0.000000   0.000000   0.000000   0.441948
   75  N  8  S    0.013731   0.072139   0.000000   0.000000   0.000000
   76  N  8  X    0.000000   0.000000   0.050146  -0.000000  -0.000000
   77  N  8  Y    0.000000  -0.000000  -0.000000   0.050146   0.000000
   78  N  8  Z    0.000000  -0.000000  -0.000000   0.000000   0.050146
   79  N  8 XX   -0.502744   0.420094   0.000000  -0.000000   0.000000
   80  N  8 YY   -0.502744   0.420094   0.000000   0.000000   0.000000
   81  N  8 ZZ   -0.502744   0.420094   0.000000  -0.000000  -0.000000
   82  N  8 XY    0.000000  -0.000000  -0.000000   0.000000   0.000000
   83  N  8 XZ    0.000000   0.000000   0.000000   0.000000   0.000000
   84  N  8 YZ   -0.000000   0.000000   0.000000   0.000000  -0.000000
   85  H  9  S   -0.000000  -0.000042   0.000104  -0.000034  -0.000038
   86  H  9  S   -0.000794  -0.006003   0.004915  -0.001585  -0.001782
   87  H 10  S   -0.000000  -0.000042   0.000113   0.000004   0.000023
   88  H 10  S   -0.000792  -0.005994   0.005348   0.000167   0.001074
   89  H 11  S   -0.029085   0.012854   0.077892  -0.101339  -0.155186
   90  H 11  S    0.021351   0.106921   0.040265  -0.052386  -0.080221
   91  H 12  S   -0.029084   0.012872   0.122974   0.081437   0.136674
   92  H 12  S    0.021353   0.106928   0.063559   0.042091   0.070640

                     71         72         73         74         75

   71  N  8  S    0.318047
   72  N  8  X   -0.000000   0.530079
   73  N  8  Y    0.000000   0.000000   0.530079
   74  N  8  Z    0.000000   0.000000   0.000000   0.530079
   75  N  8  S    0.114154  -0.000000   0.000000   0.000000   0.095850
   76  N  8  X   -0.000000   0.160516   0.000000   0.000000   0.000000
   77  N  8  Y    0.000000   0.000000   0.160516   0.000000   0.000000
   78  N  8  Z    0.000000   0.000000   0.000000   0.160516   0.000000
   79  N  8 XX    0.277470   0.000000  -0.000000   0.000000   0.068057
   80  N  8 YY    0.277470  -0.000000  -0.000000   0.000000   0.068057
   81  N  8 ZZ    0.277470  -0.000000  -0.000000  -0.000000   0.068057
   82  N  8 XY    0.000000  -0.000000  -0.000000  -0.000000   0.000000
   83  N  8 XZ    0.000000   0.000000  -0.000000  -0.000000   0.000000
   84  N  8 YZ   -0.000000  -0.000000   0.000000  -0.000000   0.000000
   85  H  9  S   -0.003738   0.010371  -0.003344  -0.003759  -0.003123
   86  H  9  S   -0.012839   0.010465  -0.003374  -0.003793  -0.001100
   87  H 10  S   -0.003730   0.011277   0.000352   0.002264  -0.003126
   88  H 10  S   -0.012831   0.011412   0.000357   0.002291  -0.001112
   89  H 11  S    0.110038   0.129697  -0.168737  -0.258396   0.046555
   90  H 11  S    0.144307   0.082439  -0.107255  -0.164245   0.086601
   91  H 12  S    0.110048   0.204730   0.135578   0.227538   0.046557
   92  H 12  S    0.144313   0.130129   0.086175   0.144626   0.086602

                     76         77         78         79         80

   76  N  8  X    0.159750
   77  N  8  Y    0.000000   0.159750
   78  N  8  Z    0.000000   0.000000   0.159750
   79  N  8 XX   -0.000000   0.000000   0.000000   1.733333
   80  N  8 YY   -0.000000   0.000000   0.000000  -0.133333   1.733333
   81  N  8 ZZ   -0.000000   0.000000   0.000000  -0.133333  -0.133333
   82  N  8 XY    0.000000  -0.000000   0.000000   0.000000   0.000000
   83  N  8 XZ    0.000000   0.000000  -0.000000   0.000000   0.000000
   84  N  8 YZ    0.000000   0.000000   0.000000   0.000000   0.000000
   85  H  9  S   -0.007489   0.002414   0.002714  -0.000281  -0.000049
   86  H  9  S   -0.029073   0.009373   0.010537  -0.008311  -0.005833
   87  H 10  S   -0.008133  -0.000254  -0.001633  -0.000327  -0.000022
   88  H 10  S   -0.031620  -0.000988  -0.006347  -0.008818  -0.005539
   89  H 11  S    0.029502  -0.038383  -0.058778  -0.007480   0.046896
   90  H 11  S    0.042179  -0.054875  -0.084033   0.085715   0.092167
   91  H 12  S    0.046568   0.030839   0.051756   0.109637  -0.000195
   92  H 12  S    0.066577   0.044089   0.073994   0.099614   0.086584

                     81         82         83         84         85

   81  N  8 ZZ    1.733333
   82  N  8 XY    0.000000   2.800000
   83  N  8 XZ   -0.000000   0.000000   2.800000
   84  N  8 YZ    0.000000   0.000000   0.000000   2.800000
   85  H  9  S   -0.000056   0.000145   0.000163  -0.000052   1.395678
   86  H  9  S   -0.005909   0.001544   0.001736  -0.000560   0.259735
   87  H 10  S   -0.000034  -0.000017  -0.000106  -0.000003  -0.018805
   88  H 10  S   -0.005668  -0.000178  -0.001141  -0.000036  -0.006776
   89  H 11  S    0.225627  -0.176906  -0.270906   0.352452  -0.000000
   90  H 11  S    0.113373  -0.020990  -0.032143   0.041818  -0.000707
   91  H 12  S    0.155653   0.224383   0.376577   0.249381  -0.000005
   92  H 12  S    0.105073   0.026620   0.044675   0.029585  -0.002542

                     86         87         88         89         90

   86  H  9  S    0.241917
   87  H 10  S   -0.006776   1.395678
   88  H 10  S    0.024836   0.259735   0.241917
   89  H 11  S   -0.000707  -0.000005  -0.002530   1.395678
   90  H 11  S   -0.005488  -0.002530  -0.009867   0.259735   0.241917
   91  H 12  S   -0.002542  -0.000000  -0.000707  -0.025609  -0.001099
   92  H 12  S   -0.009886  -0.000707  -0.005489  -0.001099   0.035327

                     91         92

   91  H 12  S    1.395678
   92  H 12  S    0.259735   0.241917
 ...... END OF ONE-ELECTRON INTEGRALS ......
 CPU     0: STEP CPU TIME=     0.04 TOTAL CPU TIME=        0.0 (    0.0 MIN)
 TOTAL WALL CLOCK TIME=        0.1 SECONDS, CPU UTILIZATION IS  50.00%
 CHECK SHOWS $GUESS    GROUP SYNTAX IS OK

          -------------
          GUESS OPTIONS
          -------------
          GUESS =HUCKEL            NORB  =       0          NORDER=       0
          MIX   =       F          PRTMO =       F          PUNMO =       F
          TOLZ  = 1.0E-08          TOLE  = 1.0E-05
          SYMDEN=       F          PURIFY=       F
 CHECK SHOWS $MOFRZ    GROUP INPUT IS NOT PRESENT

 INITIAL GUESS ORBITALS GENERATED BY HUCKEL   ROUTINE.
 HUCKEL GUESS REQUIRES     73192 WORDS.

 STATISTICS FOR GENERATION OF SYMMETRY ORBITAL -Q- MATRIX
 NUMBER OF CARTESIAN ATOMIC ORBITALS=         92
 NUMBER OF SPHERICAL CONTAMINANTS DROPPED=     0
 NUMBER OF LINEARLY DEPENDENT MOS DROPPED=    19
 TOTAL NUMBER OF MOS IN VARIATION SPACE=      73

 ...WARNING (SYMORB.SRC)...
 THE INPUT BASIS SET CONTAINS APPROXIMATE LINEAR DEPENDENCE.
 THE SMALLEST EIGENVALUE OF THE OVERLAP MATRIX IS  -5.301107E-17
 THERE ARE   19 EIGENVALUES LESS THAN QMTTOL=  1.00E-06
 EIGENVECTORS BELOW -QMTTOL- ARE DROPPED FROM THE MO SPACE,
 IN ORDER TO ELIMINATE THE APPROXIMATE LINEAR DEPENDENCE.

 THIS WILL MOST LIKELY CHANGE THE ENERGY ON THE ORDER OF TENS OF MICROHARTREES,
 DEPENDING ON THE NUMBER OF ORBITALS REMOVED.  THE VALUE OF QMTTOL CAN BE 
 CHANGED IN $CONTRL: JOBS WITH EIGENVALUES BELOW 1.0E-07 PROBABLY WON'T
 CONVERGE.  EIGENVALUES BETWEEN 1.0E-07 AND 1.0E-06 MAY REQUIRE LOOSENING OF
 THE DENSITY CRITERION (CONV IN $SCF), MORE ACCURATE INTEGRAL EVALUATION
 (ICUT=11 IN $CONTRL), MORE ACCURATE DIRECT SCF FOCK MATRIX
 CONSTRUCTION (FDIFF=.FALSE. IN $SCF), OR CHANGING THE SCF CONVERGER
 (DIIS=.TRUE. IN $SCF).

                    * * * * * WARNING * * * * *
 POSSIBLE LINEAR DEPENDENCE PROBLEMS DETECTED, INPUT QMTTOL= 1.0E-06,
 WITH    18 OVERLAP EIGENVALUES LYING BETWEEN 1.0E-05 AND QMTTOL.
 IF YOU EXPERIENCE SCF CONVERGENCE DIFFICULTIES WITH THE DENSITY ALMOST BUT
 NOT QUITE CONVERGED, YOU MAY NEED TO LOOSEN -QMTTOL- BY A FACTOR 5 TO 10.

 SYMMETRIES FOR INITIAL GUESS ORBITALS FOLLOW.   BOTH SET(S).
    16 ORBITALS ARE OCCUPIED (    4 CORE ORBITALS).
     5=A        6=A        7=A        8=A        9=A       10=A       11=A   
    12=A       13=A       14=A       15=A       16=A       17=A       18=A   
    19=A       20=A       21=A       22=A       23=A       24=A       25=A   
    26=A   
 ...... END OF INITIAL ORBITAL SELECTION ......
 CPU     0: STEP CPU TIME=     0.01 TOTAL CPU TIME=        0.0 (    0.0 MIN)
 TOTAL WALL CLOCK TIME=        0.1 SECONDS, CPU UTILIZATION IS  50.00%

                    ----------------------
                    AO INTEGRAL TECHNOLOGY
                    ----------------------
     S,P,L SHELL ROTATED AXIS INTEGRALS, REPROGRAMMED BY
        KAZUYA ISHIMURA (IMS) AND JOSE SIERRA (SYNSTAR).
     S,P,D,L SHELL ROTATED AXIS INTEGRALS PROGRAMMED BY
        KAZUYA ISHIMURA (INSTITUTE FOR MOLECULAR SCIENCE).
     S,P,D,F,G SHELL TO TOTAL QUARTET ANGULAR MOMENTUM SUM 5,
        ERIC PROGRAM BY GRAHAM FLETCHER (ELORET AND NASA ADVANCED
        SUPERCOMPUTING DIVISION, AMES RESEARCH CENTER).
     S,P,D,F,G,L SHELL GENERAL RYS QUADRATURE PROGRAMMED BY
        MICHEL DUPUIS (PACIFIC NORTHWEST NATIONAL LABORATORY).

          --------------------
          2 ELECTRON INTEGRALS
          --------------------

 THE -PK- OPTION IS OFF, THE INTEGRALS ARE NOT IN SUPERMATRIX FORM.
 STORING   15000 INTEGRALS/RECORD ON DISK, USING 12 BYTES/INTEGRAL.
 TWO ELECTRON INTEGRAL EVALUATION REQUIRES   91062 WORDS OF MEMORY.
  ...... END OF TWO-ELECTRON INTEGRALS .....
 CPU     0: STEP CPU TIME=     0.02 TOTAL CPU TIME=        0.1 (    0.0 MIN)
 TOTAL WALL CLOCK TIME=        0.1 SECONDS, CPU UTILIZATION IS  58.33%

          --------------------------
                 RHF SCF CALCULATION
          --------------------------

     NUCLEAR ENERGY =     22353.7860540380
     MAXIT =   30     NPUNCH=    2
     EXTRAP=T  DAMP=F  SHIFT=F  RSTRCT=F  DIIS=F  DEM=F  SOSCF=T
     DENSITY MATRIX CONV=  1.00E-05
     SOSCF WILL OPTIMIZE     912 ORBITAL ROTATIONS, SOGTOL=   0.250
     MEMORY REQUIRED FOR RHF ITERS=     94184 WORDS.
 ...... END OF RHF CALCULATION ......
 CPU     0: STEP CPU TIME=     0.00 TOTAL CPU TIME=        0.1 (    0.0 MIN)
 TOTAL WALL CLOCK TIME=        0.1 SECONDS, CPU UTILIZATION IS  58.33%

     ----------------------------------------------------------------
     PROPERTY VALUES FOR THE RHF   SELF-CONSISTENT FIELD WAVEFUNCTION
     ----------------------------------------------------------------
 MEMORY ASSIGNEMENT
 I10, I20, I21, I30, I31, I40, I41, I60 =
****************************************************************
 LAST = ********

          ---------------------------------------
          MULLIKEN AND LOWDIN POPULATION ANALYSES
          ---------------------------------------
 MEMORY ASSIGNMENT
 I10, I30, I40, I50, I60, I70, I41, I51, I61, I71 =
********************************************************************************
 LAST = ********

          ---------------------
          ELECTROSTATIC MOMENTS
          ---------------------

 ...... END OF PROPERTY EVALUATION ......
 CPU     0: STEP CPU TIME=     0.01 TOTAL CPU TIME=        0.1 (    0.0 MIN)
 TOTAL WALL CLOCK TIME=        0.1 SECONDS, CPU UTILIZATION IS  66.67%
 CHECK SHOWS $TRUNCN   GROUP INPUT IS NOT PRESENT
               580000  WORDS OF DYNAMIC MEMORY USED
 EXECUTION OF GAMESS TERMINATED NORMALLY Wed Apr 30 16:22:37 2014
 DDI: 263624 bytes (0.3 MB / 0 MWords) used by master data server.

 ----------------------------------------
 CPU timing information for all processes
 ========================================
 0: 0.72 + 0.16 = 0.88
 1: 0.16 + 0.12 = 0.28
 ----------------------------------------
 CROWD CASE.
 ddikick.x: exited gracefully.
unset echo
----- accounting info -----
Files used on the master node eam were:
-rw-rw-r-- 1 dulikai dulikai     907 Apr 30 16:22 /tmp/dulikai/gamess.F05
-rw-rw-r-- 1 dulikai dulikai       0 Apr 30 16:22 /tmp/dulikai/gamess.F08
-rw-rw-r-- 1 dulikai dulikai       0 Apr 30 16:22 /tmp/dulikai/gamess.F08.001
-rw-rw-r-- 1 dulikai dulikai 1636000 Apr 30 16:22 /tmp/dulikai/gamess.F10
ls: No match.
ls: No match.
ls: No match.
Wed Apr 30 16:22:40 CST 2014
0.0u 0.0s 0:03.42 0.8% 0+0k 176+176io 6pf+0w
