 Entering Gaussian System, Link 0=g09
 Input=gaussian.gjf
 Output=gaussian.log
 Initial command:
 /opt/g09_D01_em64t/g09/l1.exe "/tmp/Gau-21648.inp" -scrdir="/tmp/"
 Entering Link 1 = /opt/g09_D01_em64t/g09/l1.exe PID=     21649.
  
 Copyright (c) 1988,1990,1992,1993,1995,1998,2003,2009,2013,
            Gaussian, Inc.  All Rights Reserved.
  
 This is part of the Gaussian(R) 09 program.  It is based on
 the Gaussian(R) 03 system (copyright 2003, Gaussian, Inc.),
 the Gaussian(R) 98 system (copyright 1998, Gaussian, Inc.),
 the Gaussian(R) 94 system (copyright 1995, Gaussian, Inc.),
 the Gaussian 92(TM) system (copyright 1992, Gaussian, Inc.),
 the Gaussian 90(TM) system (copyright 1990, Gaussian, Inc.),
 the Gaussian 88(TM) system (copyright 1988, Gaussian, Inc.),
 the Gaussian 86(TM) system (copyright 1986, Carnegie Mellon
 University), and the Gaussian 82(TM) system (copyright 1983,
 Carnegie Mellon University). Gaussian is a federally registered
 trademark of Gaussian, Inc.
  
 This software contains proprietary and confidential information,
 including trade secrets, belonging to Gaussian, Inc.
  
 This software is provided under written license and may be
 used, copied, transmitted, or stored only in accord with that
 written license.
  
 The following legend is applicable only to US Government
 contracts under FAR:
  
                    RESTRICTED RIGHTS LEGEND
  
 Use, reproduction and disclosure by the US Government is
 subject to restrictions as set forth in subparagraphs (a)
 and (c) of the Commercial Computer Software - Restricted
 Rights clause in FAR 52.227-19.
  
 Gaussian, Inc.
 340 Quinnipiac St., Bldg. 40, Wallingford CT 06492
  
  
 ---------------------------------------------------------------
 Warning -- This program may not be used in any manner that
 competes with the business of Gaussian, Inc. or will provide
 assistance to any competitor of Gaussian, Inc.  The licensee
 of this program is prohibited from giving any competitor of
 Gaussian, Inc. access to this program.  By using this program,
 the user acknowledges that Gaussian, Inc. is engaged in the
 business of creating and licensing software in the field of
 computational chemistry and represents and warrants to the
 licensee that it is not a competitor of Gaussian, Inc. and that
 it will not use this program in any manner prohibited above.
 ---------------------------------------------------------------
  

 Cite this work as:
 Gaussian 09, Revision D.01,
 M. J. Frisch, G. W. Trucks, H. B. Schlegel, G. E. Scuseria, 
 M. A. Robb, J. R. Cheeseman, G. Scalmani, V. Barone, B. Mennucci, 
 G. A. Petersson, H. Nakatsuji, M. Caricato, X. Li, H. P. Hratchian, 
 A. F. Izmaylov, J. Bloino, G. Zheng, J. L. Sonnenberg, M. Hada, 
 M. Ehara, K. Toyota, R. Fukuda, J. Hasegawa, M. Ishida, T. Nakajima, 
 Y. Honda, O. Kitao, H. Nakai, T. Vreven, J. A. Montgomery, Jr., 
 J. E. Peralta, F. Ogliaro, M. Bearpark, J. J. Heyd, E. Brothers, 
 K. N. Kudin, V. N. Staroverov, T. Keith, R. Kobayashi, J. Normand, 
 K. Raghavachari, A. Rendell, J. C. Burant, S. S. Iyengar, J. Tomasi, 
 M. Cossi, N. Rega, J. M. Millam, M. Klene, J. E. Knox, J. B. Cross, 
 V. Bakken, C. Adamo, J. Jaramillo, R. Gomperts, R. E. Stratmann, 
 O. Yazyev, A. J. Austin, R. Cammi, C. Pomelli, J. W. Ochterski, 
 R. L. Martin, K. Morokuma, V. G. Zakrzewski, G. A. Voth, 
 P. Salvador, J. J. Dannenberg, S. Dapprich, A. D. Daniels, 
 O. Farkas, J. B. Foresman, J. V. Ortiz, J. Cioslowski, 
 and D. J. Fox, Gaussian, Inc., Wallingford CT, 2013.
 
 ******************************************
 Gaussian 09:  EM64L-G09RevD.01 24-Apr-2013
                30-Apr-2014 
 ******************************************
 %chk=gaussian.chk
 %mem=1GB
 %nproc=2
 Will use up to    2 processors via shared memory.
 %nproclinda=1
 Will use up to    1 processors via Linda.
 ----------------------------------------------------------------------
 # b3lyp/6-31g* scf=(tight,maxcycle=10000) iop(9/40=20) nosymm pop=full
 ----------------------------------------------------------------------
 1/38=1/1;
 2/12=2,15=1,17=6,18=5,40=1/2;
 3/5=1,6=6,7=1,11=2,16=1,25=1,30=1,74=-5/1,2,3;
 4//1;
 5/5=2,7=10000,32=2,38=5/2;
 6/7=3,28=1/1;
 99/5=1,9=1/99;
 -------
 [0] [0]
 -------
 Symbolic Z-matrix:
 Charge =  1 Multiplicity = 1
 c                    -2.44791   0.32776   0.223 
 n                    -1.18747   0.15256   0.09277 
 h                    -2.82465   0.95312   1.02948 
 h                    -3.13391  -0.1507   -0.47237 
 h                    -0.79617  -0.42699  -0.65336 
 h                    -0.51309   0.58368   0.72917 
 
                          Input orientation:                          
 ---------------------------------------------------------------------
 Center     Atomic      Atomic             Coordinates (Angstroms)
 Number     Number       Type             X           Y           Z
 ---------------------------------------------------------------------
      1          6           0       -2.447910    0.327758    0.223002
      2          7           0       -1.187472    0.152563    0.092770
      3          1           0       -2.824649    0.953119    1.029477
      4          1           0       -3.133910   -0.150703   -0.472366
      5          1           0       -0.796165   -0.426992   -0.653365
      6          1           0       -0.513094    0.583677    0.729167
 ---------------------------------------------------------------------
                    Distance matrix (angstroms):
                    1          2          3          4          5
     1  C    0.000000
     2  N    1.279202   0.000000
     3  H    1.087847   2.049063   0.000000
     4  H    1.087685   2.049384   1.889339   0.000000
     5  H    2.016414   1.022605   2.975132   2.360963   0.000000
     6  H    2.016237   1.022568   2.360076   2.975177   1.735793
                    6
     6  H    0.000000
 Symmetry turned off by external request.
 Stoichiometry    CH4N(1+)
 Framework group  C1[X(CH4N)]
 Deg. of freedom    12
 Full point group                 C1      NOp   1
 Rotational constants (GHZ):    152.3582657     31.2108818     25.9043471
 Standard basis: 6-31G(d) (6D, 7F)
    38 basis functions,    72 primitive gaussians,    38 cartesian basis functions
     8 alpha electrons        8 beta electrons
       nuclear repulsion energy        38.6107223126 Hartrees.
 NAtoms=    6 NActive=    6 NUniq=    6 SFac= 1.00D+00 NAtFMM=   60 NAOKFM=F Big=F
 Integral buffers will be    131072 words long.
 Raffenetti 2 integral format.
 Two-electron integral symmetry is turned off.
 One-electron integrals computed using PRISM.
 NBasis=    38 RedAO= T EigKep=  8.39D-03  NBF=    38
 NBsUse=    38 1.00D-06 EigRej= -1.00D+00 NBFU=    38
 ExpMin= 1.61D-01 ExpMax= 4.17D+03 ExpMxC= 6.27D+02 IAcc=1 IRadAn=         1 AccDes= 0.00D+00
 Harris functional with IExCor=  402 and IRadAn=       1 diagonalized for initial guess.
 HarFok:  IExCor=  402 AccDes= 0.00D+00 IRadAn=         1 IDoV= 1 UseB2=F ITyADJ=14
 ICtDFT=  3500011 ScaDFX=  1.000000  1.000000  1.000000  1.000000
 FoFCou: FMM=F IPFlag=           0 FMFlag=      100000 FMFlg1=           0
         NFxFlg=           0 DoJE=T BraDBF=F KetDBF=T FulRan=T
         wScrn=  0.000000 ICntrl=     500 IOpCl=  0 I1Cent=   200000004 NGrid=           0
         NMat0=    1 NMatS0=      1 NMatT0=    0 NMatD0=    1 NMtDS0=    0 NMtDT0=    0
 Symmetry not used in FoFCou.
 Keep R1 ints in memory in canonical form, NReq=101191747.
 Requested convergence on RMS density matrix=1.00D-08 within**** cycles.
 Requested convergence on MAX density matrix=1.00D-06.
 Requested convergence on             energy=1.00D-06.
 No special actions if energy rises.
 Integral accuracy reduced to 1.0D-05 until final iterations.
 Initial convergence to 1.0D-05 achieved.  Increase integral accuracy.
 SCF Done:  E(RB3LYP) =  -94.9741087318     A.U. after   11 cycles
            NFock= 11  Conv=0.40D-08     -V/T= 2.0105

 **********************************************************************

            Population analysis using the SCF density.

 **********************************************************************

 Alpha  occ. eigenvalues --  -14.69044 -10.54734  -1.24717  -0.95293  -0.84795
 Alpha  occ. eigenvalues --   -0.78949  -0.68236  -0.65318
 Alpha virt. eigenvalues --   -0.31943  -0.16791  -0.13534  -0.10175  -0.01441
 Alpha virt. eigenvalues --    0.03835   0.27534   0.27826   0.31836   0.38444
 Alpha virt. eigenvalues --    0.44169   0.45317   0.55757   0.61719   0.62415
 Alpha virt. eigenvalues --    0.67102   0.93890   1.08747   1.13872   1.18471
 Alpha virt. eigenvalues --    1.50870   1.58177   1.73180   1.87324   2.04733
 Alpha virt. eigenvalues --    2.10664   2.38512   2.43554   3.46247   3.80878
     Molecular Orbital Coefficients:
                           1         2         3         4         5
                           O         O         O         O         O
     Eigenvalues --   -14.69044 -10.54734  -1.24717  -0.95293  -0.84795
   1 1   C  1S          0.00008   0.99269  -0.11024  -0.16249   0.00003
   2        2S          0.00033   0.04871   0.22147   0.34575  -0.00006
   3        2PX         0.00026   0.00102   0.15074  -0.01351   0.04111
   4        2PY        -0.00004  -0.00014  -0.02096   0.00181   0.14646
   5        2PZ        -0.00003  -0.00011  -0.01556   0.00143   0.19975
   6        3S         -0.00082  -0.00936   0.08454   0.28226  -0.00007
   7        3PX        -0.00039   0.00040  -0.00886  -0.02292   0.01213
   8        3PY         0.00005  -0.00005   0.00122   0.00315   0.04321
   9        3PZ         0.00004  -0.00004   0.00092   0.00240   0.05891
  10        4XX        -0.00007  -0.00887   0.01674  -0.00322   0.00271
  11        4YY         0.00000  -0.00981  -0.01240  -0.00817  -0.00136
  12        4ZZ         0.00000  -0.00970  -0.01049  -0.00086  -0.00136
  13        4XY         0.00001  -0.00013  -0.00432   0.00071   0.00536
  14        4XZ         0.00001  -0.00007  -0.00270   0.00225   0.00750
  15        4YZ         0.00000   0.00024   0.00458   0.01390  -0.00164
  16 2   N  1S          0.99260  -0.00032  -0.19431   0.07492   0.00001
  17        2S          0.03481  -0.00020   0.41408  -0.16721  -0.00003
  18        2PX        -0.00017   0.00041  -0.07578  -0.32504   0.07562
  19        2PY         0.00002  -0.00006   0.01053   0.04520   0.27014
  20        2PZ         0.00002  -0.00004   0.00786   0.03356   0.36931
  21        3S          0.00484   0.00132   0.38591  -0.23044  -0.00005
  22        3PX        -0.00007   0.00035  -0.01582  -0.13404   0.03947
  23        3PY         0.00001  -0.00005   0.00220   0.01866   0.14102
  24        3PZ         0.00001  -0.00004   0.00166   0.01384   0.19280
  25        4XX        -0.00834  -0.00069   0.00897   0.00754   0.00282
  26        4YY        -0.00846  -0.00010  -0.00733  -0.00256  -0.00141
  27        4ZZ        -0.00844  -0.00013  -0.00020  -0.00977  -0.00141
  28        4XY        -0.00002   0.00009  -0.00122  -0.00307   0.00558
  29        4XZ        -0.00001   0.00006   0.00080  -0.00396   0.00780
  30        4YZ         0.00004  -0.00009   0.01371  -0.01299  -0.00171
  31 3   H  1S         -0.00001  -0.00035   0.03448   0.12144   0.09032
  32        2S          0.00001   0.00211  -0.00278   0.02006   0.03409
  33 4   H  1S         -0.00001  -0.00035   0.03446   0.12149  -0.09037
  34        2S          0.00001   0.00211  -0.00279   0.02007  -0.03409
  35 5   H  1S          0.00031   0.00001   0.09743  -0.13588  -0.19363
  36        2S         -0.00058  -0.00004  -0.00981  -0.02027  -0.04904
  37 6   H  1S          0.00031   0.00001   0.09745  -0.13586   0.19360
  38        2S         -0.00058  -0.00004  -0.00981  -0.02026   0.04904
                           6         7         8         9        10
                           O         O         O         V         V
     Eigenvalues --    -0.78949  -0.68236  -0.65318  -0.31943  -0.16791
   1 1   C  1S          0.05293  -0.00002  -0.00005  -0.00010  -0.01687
   2        2S         -0.10208   0.00003   0.00012   0.00023   0.05669
   3        2PX         0.42821   0.07083   0.01591   0.02660  -0.14618
   4        2PY        -0.05928   0.25514   0.26771   0.43383   0.02047
   5        2PZ        -0.04434   0.34324  -0.20377  -0.32429   0.01538
   6        3S         -0.20048   0.00011   0.00017   0.00052   0.23967
   7        3PX         0.09859   0.03533   0.00754   0.02799  -0.48628
   8        3PY        -0.01362   0.12704   0.12705   0.45777   0.06783
   9        3PZ        -0.01022   0.17118  -0.09694  -0.34236   0.05090
  10        4XX         0.01813  -0.00895   0.00247  -0.00179   0.01556
  11        4YY        -0.00976   0.00438  -0.00544   0.00395  -0.00367
  12        4ZZ        -0.01878   0.00457   0.00296  -0.00219  -0.00871
  13        4XY        -0.00638  -0.01757   0.02239  -0.01631  -0.00411
  14        4XZ        -0.00681  -0.02471  -0.01666   0.01231  -0.00419
  15        4YZ        -0.01601   0.00540  -0.00003   0.00000  -0.00871
  16 2   N  1S         -0.01917   0.00002  -0.00001   0.00004  -0.11918
  17        2S          0.04684  -0.00005   0.00001  -0.00013   0.22754
  18        2PX        -0.37908  -0.03966   0.02684  -0.02001   0.17861
  19        2PY         0.05272  -0.13971   0.42503  -0.32227  -0.02479
  20        2PZ         0.03889  -0.19742  -0.31403   0.23975  -0.01823
  21        3S          0.03786  -0.00009   0.00005  -0.00016   1.65279
  22        3PX        -0.16852  -0.02614   0.01764  -0.02299   0.28972
  23        3PY         0.02343  -0.09207   0.27993  -0.36889  -0.04020
  24        3PZ         0.01726  -0.12987  -0.20677   0.27446  -0.02958
  25        4XX        -0.00224  -0.00841  -0.00129  -0.00249  -0.01454
  26        4YY        -0.00442   0.00420   0.00303   0.00564  -0.02102
  27        4ZZ        -0.00853   0.00422  -0.00173  -0.00314  -0.02503
  28        4XY        -0.00119  -0.01675  -0.01248  -0.02323  -0.00188
  29        4XZ        -0.00184  -0.02310   0.00976   0.01771  -0.00233
  30        4YZ        -0.00754   0.00508  -0.00004  -0.00003  -0.00724
  31 3   H  1S         -0.16123   0.23021  -0.00170   0.00009  -0.01601
  32        2S         -0.07594   0.12701  -0.00101   0.00025  -0.36546
  33 4   H  1S         -0.16143  -0.23004   0.00175  -0.00041  -0.01582
  34        2S         -0.07602  -0.12688   0.00106  -0.00070  -0.36423
  35 5   H  1S         -0.09594   0.14369  -0.00110  -0.00026  -0.12820
  36        2S         -0.04468   0.07774  -0.00065  -0.00042  -0.99406
  37 6   H  1S         -0.09608  -0.14365   0.00112   0.00039  -0.12838
  38        2S         -0.04473  -0.07769   0.00069   0.00068  -0.99516
                          11        12        13        14        15
                           V         V         V         V         V
     Eigenvalues --    -0.13534  -0.10175  -0.01441   0.03835   0.27534
   1 1   C  1S         -0.00007  -0.13619   0.00006  -0.06507   0.00007
   2        2S          0.00015   0.27647  -0.00006   0.00724  -0.00112
   3        2PX         0.04309  -0.15800   0.06741   0.18155  -0.04972
   4        2PY         0.15419   0.02157   0.24147  -0.02493  -0.78278
   5        2PZ         0.20931   0.01648   0.32817  -0.01850   0.58540
   6        3S          0.00084   1.98674  -0.00147   2.19105  -0.00073
   7        3PX         0.08174  -0.34302   0.22968   2.36017   0.05539
   8        3PY         0.29224   0.04669   0.82389  -0.32710   0.87787
   9        3PZ         0.39602   0.03590   1.12166  -0.24303  -0.65598
  10        4XX         0.01023  -0.01055   0.00115  -0.05020  -0.00378
  11        4YY        -0.00506   0.00077  -0.00055   0.01975   0.00839
  12        4ZZ        -0.00518  -0.00548  -0.00059   0.02775  -0.00473
  13        4XY         0.02025   0.00054   0.00219   0.01297  -0.03479
  14        4XZ         0.02818  -0.00112   0.00297   0.01141   0.02642
  15        4YZ        -0.00618  -0.01220  -0.00067   0.01285   0.00003
  16 2   N  1S          0.00012   0.05564  -0.00002   0.06319  -0.00009
  17        2S         -0.00022  -0.11182   0.00004  -0.06517   0.00003
  18        2PX         0.05591   0.00242  -0.05041   0.38604  -0.01245
  19        2PY         0.20017  -0.00036  -0.17859  -0.05380  -0.20048
  20        2PZ         0.27434  -0.00054  -0.24409  -0.03995   0.14861
  21        3S         -0.00164  -0.70004   0.00040  -2.00585   0.00022
  22        3PX         0.10331   0.13917  -0.14792   1.65136   0.00197
  23        3PY         0.36912  -0.01930  -0.52491  -0.23000   0.05889
  24        3PZ         0.50623  -0.01501  -0.71657  -0.17095  -0.04288
  25        4XX        -0.01080   0.01942  -0.00757   0.01959   0.00560
  26        4YY         0.00541   0.00519   0.00378   0.02232  -0.01324
  27        4ZZ         0.00545   0.00060   0.00377   0.01320   0.00748
  28        4XY        -0.02146  -0.00320  -0.01500  -0.00140   0.05486
  29        4XZ        -0.02980  -0.00346  -0.02077  -0.00317  -0.04157
  30        4YZ         0.00654  -0.00824   0.00457  -0.01686   0.00006
  31 3   H  1S         -0.09536  -0.12609  -0.06153   0.04120  -0.00002
  32        2S         -0.72205  -1.27055  -1.47807   0.29247   0.00000
  33 4   H  1S          0.09519  -0.12621   0.06143   0.04104   0.00022
  34        2S          0.72099  -1.27183   1.47818   0.29606   0.00081
  35 5   H  1S          0.14503   0.04544  -0.01148  -0.06875   0.00006
  36        2S          1.01071   0.32235  -0.93185  -0.59808  -0.00029
  37 6   H  1S         -0.14475   0.04565   0.01160  -0.06878  -0.00002
  38        2S         -1.00870   0.32395   0.93323  -0.59696   0.00083
                          16        17        18        19        20
                           V         V         V         V         V
     Eigenvalues --     0.27826   0.31836   0.38444   0.44169   0.45317
   1 1   C  1S         -0.02362   0.00006  -0.06203   0.00011   0.06153
   2        2S          0.45069   0.00070  -0.81286  -0.00087  -0.21625
   3        2PX         0.92184  -0.09215   0.10150   0.01424  -0.22328
   4        2PY        -0.12968  -0.32722  -0.01465   0.23972   0.03069
   5        2PZ        -0.09471  -0.44672  -0.01103  -0.17882   0.02360
   6        3S          0.46437  -0.00110   1.58207   0.00370   1.16404
   7        3PX        -0.61879   0.22607  -0.53561  -0.03491   0.73969
   8        3PY         0.08774   0.80010   0.07524  -0.58622  -0.10161
   9        3PZ         0.06349   1.08967   0.05725   0.43669  -0.07796
  10        4XX        -0.00629   0.03617  -0.10337  -0.00268   0.14704
  11        4YY         0.02435  -0.01774  -0.01400   0.00650  -0.04295
  12        4ZZ         0.01840  -0.01822  -0.09845  -0.00376  -0.03947
  13        4XY         0.00370   0.07139  -0.00275  -0.02731  -0.02992
  14        4XZ         0.00138   0.09917  -0.02206   0.02019  -0.02110
  15        4YZ        -0.01211  -0.02161  -0.16181  -0.00003   0.01343
  16 2   N  1S          0.05564   0.00000  -0.01253  -0.00014  -0.05653
  17        2S         -0.06168   0.00025  -0.24546   0.00021   0.17732
  18        2PX        -0.02825  -0.01117   0.20446  -0.04780  -0.45520
  19        2PY         0.00357  -0.03979  -0.02793  -0.75085   0.06499
  20        2PZ         0.00319  -0.05248  -0.02132   0.55886   0.04562
  21        3S         -0.11266  -0.00138   0.42616  -0.00088  -0.48332
  22        3PX         1.07213   0.00670  -0.09884   0.06761   1.41925
  23        3PY        -0.14892   0.02227   0.01326   1.03496  -0.19982
  24        3PZ        -0.11088   0.03016   0.01018  -0.77145  -0.14438
  25        4XX         0.17973  -0.03102  -0.05362   0.00191  -0.08462
  26        4YY        -0.04919   0.01549  -0.01385  -0.00466   0.04429
  27        4ZZ        -0.06301   0.01561  -0.05265   0.00242  -0.04535
  28        4XY        -0.03975  -0.06135  -0.00140   0.01954   0.00292
  29        4XZ        -0.03245  -0.08537  -0.01037  -0.01444  -0.01899
  30        4YZ        -0.01805   0.01876  -0.07355  -0.00047  -0.16983
  31 3   H  1S         -0.03165  -0.40668  -0.58662   0.00058   0.15595
  32        2S         -0.07074  -0.28416  -0.12733  -0.00085  -0.08853
  33 4   H  1S         -0.03157   0.40792  -0.58576  -0.00049   0.15599
  34        2S         -0.07052   0.28491  -0.12642  -0.00005  -0.08910
  35 5   H  1S         -0.04241   0.40168  -0.20940  -0.00242  -0.65873
  36        2S         -0.15939  -0.21468   0.04051   0.00080   0.04281
  37 6   H  1S         -0.04274  -0.40144  -0.21026  -0.00078  -0.65846
  38        2S         -0.15900   0.21438   0.04115  -0.00042   0.04237
                          21        22        23        24        25
                           V         V         V         V         V
     Eigenvalues --     0.55757   0.61719   0.62415   0.67102   0.93890
   1 1   C  1S          0.00001  -0.00007   0.01406   0.01186   0.00978
   2        2S         -0.00074   0.00181  -0.63064  -1.30693   0.66725
   3        2PX        -0.14740   0.06039  -0.08351   0.51392  -0.00132
   4        2PY        -0.52721   0.21496   0.01219  -0.07071   0.00027
   5        2PZ        -0.71707   0.29225   0.00939  -0.05294   0.00031
   6        3S          0.00120  -0.00653   2.52611   2.35358  -3.97438
   7        3PX         0.37929  -0.18965   1.03572  -1.17209  -1.65268
   8        3PY         1.35478  -0.66825  -0.14576   0.16105   0.23074
   9        3PZ         1.84276  -0.91032  -0.10926   0.12049   0.17148
  10        4XX        -0.04171   0.00889   0.09159  -0.14331  -0.08099
  11        4YY         0.02066  -0.00434  -0.04893  -0.04531   0.05826
  12        4ZZ         0.02098  -0.00451  -0.07086   0.01617   0.09940
  13        4XY        -0.08249   0.01827  -0.02712   0.02861   0.03128
  14        4XZ        -0.11461   0.02494  -0.02503   0.03549   0.03276
  15        4YZ         0.02523  -0.00549  -0.03631   0.11209   0.07480
  16 2   N  1S         -0.00002  -0.00004   0.02272  -0.00803  -0.08140
  17        2S         -0.00019   0.00104  -0.47999  -0.10964  -1.71800
  18        2PX        -0.04363  -0.15165  -0.78367   0.20002   0.15557
  19        2PY        -0.15524  -0.54850   0.10772  -0.02798  -0.02137
  20        2PZ        -0.21356  -0.74992   0.07901  -0.02072  -0.01579
  21        3S         -0.00008   0.00000   0.12316   0.27175   5.66901
  22        3PX        -0.00173   0.29540   1.94381  -0.59719  -1.42404
  23        3PY        -0.00674   1.07139  -0.26777   0.08358   0.19655
  24        3PZ        -0.00597   1.46460  -0.19708   0.06203   0.14580
  25        4XX         0.04511   0.01529  -0.18115  -0.03772  -0.30802
  26        4YY        -0.02242  -0.00725  -0.05820   0.00603  -0.17945
  27        4ZZ        -0.02282  -0.00744  -0.00963   0.00221  -0.25537
  28        4XY         0.08964   0.02914   0.02965   0.00611   0.00584
  29        4XZ         0.12464   0.04095   0.03323   0.00360  -0.01348
  30        4YZ        -0.02733  -0.00915   0.08552  -0.00902  -0.14294
  31 3   H  1S          0.39042  -0.34441  -0.03877   0.57303   0.11167
  32        2S         -1.73312   0.90842  -0.10743  -1.50082   0.24610
  33 4   H  1S         -0.38965   0.34401  -0.03705   0.57376   0.11268
  34        2S          1.73189  -0.90707  -0.11203  -1.50375   0.24625
  35 5   H  1S         -0.30027  -0.32663   0.46933  -0.01372  -0.15588
  36        2S          0.59276   1.28436  -1.22499   0.23996  -0.41963
  37 6   H  1S          0.30030   0.32457   0.47084  -0.01392  -0.15490
  38        2S         -0.59269  -1.27892  -1.23090   0.24002  -0.41883
                          26        27        28        29        30
                           V         V         V         V         V
     Eigenvalues --     1.08747   1.13872   1.18471   1.50870   1.58177
   1 1   C  1S          0.00002   0.00001   0.00007  -0.00039  -0.03690
   2        2S          0.00044  -0.00006   0.00126  -0.00250  -0.19960
   3        2PX        -0.00112   0.01073  -0.00018  -0.00078  -0.08354
   4        2PY        -0.00052   0.17166  -0.00019   0.00005   0.01145
   5        2PZ        -0.00820  -0.12770  -0.00021   0.00003   0.00865
   6        3S         -0.00426  -0.00005  -0.00550   0.00952   0.76533
   7        3PX        -0.45074   0.00493   0.00105  -0.00101  -0.13073
   8        3PY        -1.59812  -0.02578   0.00688   0.00343   0.01820
   9        3PZ        -2.17456   0.08444   0.00929   0.00453   0.01424
  10        4XX        -0.03302  -0.05053  -0.00900  -0.00921   0.12742
  11        4YY         0.01529   0.11431  -0.53215  -0.61794  -0.27763
  12        4ZZ         0.01783  -0.06375   0.54123   0.62668   0.08347
  13        4XY        -0.07236  -0.47131  -0.10429  -0.12040   0.01140
  14        4XZ        -0.08084   0.36043   0.03904   0.04634   0.09609
  15        4YZ         0.01853  -0.00009  -0.18916  -0.20978   0.72263
  16 2   N  1S         -0.00011  -0.00001  -0.00011  -0.00035  -0.03052
  17        2S         -0.00146  -0.00018  -0.00188  -0.00307  -0.25511
  18        2PX        -0.07332   0.00875   0.00026   0.00038   0.05173
  19        2PY        -0.26010   0.12460   0.00088   0.00029  -0.00725
  20        2PZ        -0.35995  -0.08269   0.00124   0.00043  -0.00528
  21        3S          0.00684   0.00058   0.00629   0.00863   0.69383
  22        3PX         0.45077  -0.00832  -0.00249   0.00402   0.36176
  23        3PY         1.61875  -0.02571  -0.00624  -0.00369  -0.05025
  24        3PZ         2.21007  -0.04585  -0.00859  -0.00464  -0.03740
  25        4XX        -0.07414   0.05413  -0.00982   0.01100   0.07396
  26        4YY         0.03369  -0.11885  -0.56014   0.58520  -0.27575
  27        4ZZ         0.03987   0.06466   0.56933  -0.59756   0.07112
  28        4XY        -0.13953   0.48883  -0.11029   0.11687   0.00942
  29        4XZ        -0.21283  -0.36388   0.04065  -0.04029   0.08775
  30        4YZ         0.04460  -0.00058  -0.20144   0.21899   0.62409
  31 3   H  1S          0.65018  -0.01260  -0.00193  -0.00559  -0.39333
  32        2S          0.90715  -0.01791  -0.00335  -0.00354  -0.09809
  33 4   H  1S         -0.65030   0.01291   0.00298  -0.00341  -0.39290
  34        2S         -0.90785   0.01756   0.00521   0.00057  -0.09775
  35 5   H  1S          0.66102  -0.01267  -0.00325  -0.00622  -0.41414
  36        2S          0.61277  -0.01173  -0.00305  -0.00309  -0.13930
  37 6   H  1S         -0.66137   0.01257   0.00193  -0.00370  -0.41424
  38        2S         -0.61301   0.01156   0.00165  -0.00073  -0.13938
                          31        32        33        34        35
                           V         V         V         V         V
     Eigenvalues --     1.73180   1.87324   2.04733   2.10664   2.38512
   1 1   C  1S         -0.00002  -0.05566   0.03567  -0.00012   0.02841
   2        2S         -0.00046  -0.33878   0.14650  -0.00029  -0.66062
   3        2PX         0.04475  -0.20629   0.05524   0.00775  -0.99640
   4        2PY         0.16005   0.02858  -0.00718   0.12960   0.13868
   5        2PZ         0.21784   0.02109  -0.00593  -0.09707   0.10319
   6        3S          0.00023   0.15554  -1.13619   0.00328  -2.27203
   7        3PX        -0.05921   0.29960  -0.16893   0.01562  -1.29405
   8        3PY        -0.21216  -0.04161   0.02373   0.24062   0.17908
   9        3PZ        -0.29082  -0.03096   0.01558  -0.17859   0.13270
  10        4XX        -0.22337   0.69863   0.17900   0.08041  -1.00248
  11        4YY         0.10994  -0.47643   0.14790  -0.18178   0.47253
  12        4ZZ         0.11336  -0.51024  -0.23872   0.10099   0.45493
  13        4XY        -0.44308  -0.19707  -0.08165   0.74684   0.23602
  14        4XZ        -0.61708  -0.15196  -0.15510  -0.56461   0.16880
  15        4YZ         0.13503  -0.02641  -0.72477   0.00222  -0.08253
  16 2   N  1S          0.00002  -0.00944  -0.04299   0.00012  -0.08718
  17        2S         -0.00021  -0.45073  -0.49850   0.00148  -0.15200
  18        2PX         0.01396   0.41733   0.16201  -0.00353  -0.50617
  19        2PY         0.04877  -0.05805  -0.02264  -0.04790   0.07026
  20        2PZ         0.06651  -0.04321  -0.01670   0.03564   0.05219
  21        3S         -0.00027   0.28558   1.55154  -0.00451   2.78482
  22        3PX         0.16321  -0.66636  -0.11900  -0.01893  -1.79263
  23        3PY         0.58439   0.09239   0.01609  -0.31165   0.24992
  24        3PZ         0.80041   0.06852   0.01420   0.23093   0.18613
  25        4XX         0.16067   0.44072  -0.04118   0.07954   1.21463
  26        4YY        -0.07988  -0.28123  -0.26712  -0.17751  -0.63078
  27        4ZZ        -0.08085  -0.42418   0.15644   0.09841  -0.63703
  28        4XY         0.31820  -0.14554   0.05078   0.73394  -0.29890
  29        4XZ         0.44140  -0.14047   0.13426  -0.55755  -0.21916
  30        4YZ        -0.09736  -0.23911   0.79144  -0.00192   0.04964
  31 3   H  1S         -0.45441   0.14824   0.43579  -0.00064   0.04194
  32        2S          0.33779  -0.07926   0.01265  -0.00070  -0.04236
  33 4   H  1S          0.45502   0.14719   0.43529  -0.00234   0.04085
  34        2S         -0.33807  -0.07865   0.01169   0.00104  -0.04325
  35 5   H  1S          0.63431   0.23577  -0.52713   0.00072  -0.01607
  36        2S          0.16799  -0.02355  -0.02212  -0.00001   0.18153
  37 6   H  1S         -0.63359   0.23662  -0.52809   0.00237  -0.01807
  38        2S         -0.16796  -0.02357  -0.02256  -0.00006   0.18149
                          36        37        38
                           V         V         V
     Eigenvalues --     2.43554   3.46247   3.80878
   1 1   C  1S         -0.00008  -0.08087  -0.45879
   2        2S          0.00112   0.77243   2.92614
   3        2PX         0.02380   0.28880  -0.25074
   4        2PY         0.07954  -0.04009   0.03493
   5        2PZ         0.10900  -0.02982   0.02587
   6        3S          0.00343  -1.00129   1.72749
   7        3PX        -0.10408  -0.56393  -0.11125
   8        3PY        -0.37657   0.07818   0.01520
   9        3PZ        -0.51274   0.05792   0.01175
  10        4XX         0.25525  -0.09107  -2.11981
  11        4YY        -0.12628  -0.35118  -1.74373
  12        4ZZ        -0.12905  -0.36824  -1.75610
  13        4XY         0.50255  -0.04565   0.05823
  14        4XZ         0.69801  -0.03742   0.03963
  15        4YZ        -0.15271  -0.02373  -0.03571
  16 2   N  1S          0.00014  -0.48162   0.09841
  17        2S          0.00015   0.98641  -0.08365
  18        2PX        -0.01260   0.12038  -0.31040
  19        2PY        -0.04811  -0.01672   0.04314
  20        2PZ        -0.06536  -0.01249   0.03208
  21        3S         -0.00373   3.87672  -0.92892
  22        3PX         0.11191  -0.28234  -0.10480
  23        3PY         0.39093   0.03932   0.01471
  24        3PZ         0.53439   0.02952   0.01081
  25        4XX         0.30643  -1.65027   0.66251
  26        4YY        -0.15229  -1.53164   0.27408
  27        4ZZ        -0.15402  -1.52692   0.28198
  28        4XY         0.61102   0.02018  -0.06133
  29        4XZ         0.85034   0.01587  -0.04286
  30        4YZ        -0.18659   0.00490   0.02789
  31 3   H  1S          0.41259   0.08218   0.17490
  32        2S          0.12044  -0.02713  -0.48564
  33 4   H  1S         -0.41341   0.08213   0.17512
  34        2S         -0.12056  -0.02760  -0.48579
  35 5   H  1S          0.64627   0.15342  -0.04142
  36        2S         -0.03725  -0.55304   0.15667
  37 6   H  1S         -0.64605   0.15327  -0.04145
  38        2S          0.03680  -0.55320   0.15664
     Density Matrix:
                           1         2         3         4         5
   1 1   C  1S          2.05360
   2        2S         -0.07529   0.36278
   3        2PX         0.01851  -0.02989   0.42647
   4        2PY        -0.00255   0.00412  -0.00043   0.32434
   5        2PZ        -0.00192   0.00309   0.01585   0.13048   0.40289
   6        3S         -0.15017   0.27265  -0.15384   0.02137   0.01594
   7        3PX         0.02063  -0.03986   0.08863   0.01422   0.01749
   8        3PY        -0.00286   0.00553   0.01421   0.14708   0.05387
   9        3PZ        -0.00214   0.00413   0.01746   0.05388   0.18143
  10        4XX        -0.01834   0.00062   0.01968  -0.00531  -0.00820
  11        4YY        -0.01512  -0.01010  -0.01156   0.00058   0.00591
  12        4ZZ        -0.01865  -0.00235  -0.01861   0.00619   0.00338
  13        4XY        -0.00021  -0.00013  -0.00812   0.00554  -0.01834
  14        4XZ        -0.00099   0.00174  -0.01012  -0.01840  -0.00648
  15        4YZ        -0.00675   0.01493  -0.01208   0.00402   0.00438
  16 2   N  1S          0.01599  -0.02971  -0.07649   0.01062   0.00793
  17        2S         -0.03238   0.05823   0.16948  -0.02354  -0.01757
  18        2PX         0.08303  -0.18090  -0.33727   0.06323   0.02709
  19        2PY        -0.01157   0.02521   0.06304   0.22888  -0.16607
  20        2PZ        -0.00855   0.01862   0.02718  -0.16552   0.13640
  21        3S         -0.00356   0.00399   0.15499  -0.02153  -0.01613
  22        3PX         0.02990  -0.06526  -0.14537   0.02783   0.00569
  23        3PY        -0.00418   0.00913   0.02768   0.14140  -0.12304
  24        3PZ        -0.00307   0.00669   0.00579  -0.12257   0.07060
  25        4XX        -0.00604   0.00957  -0.00042  -0.00424  -0.00418
  26        4YY         0.00178  -0.00413  -0.00535   0.00417   0.00170
  27        4ZZ         0.00205  -0.00512  -0.00668   0.00179   0.00377
  28        4XY         0.00132  -0.00242  -0.00361  -0.01341  -0.00405
  29        4XZ         0.00103  -0.00200  -0.00355  -0.00411  -0.01659
  30        4YZ         0.00023  -0.00138  -0.00139   0.00235   0.00303
  31 3   H  1S         -0.06484   0.13214  -0.09099   0.16113   0.20839
  32        2S         -0.00977   0.02835  -0.04565   0.08345   0.10810
  33 4   H  1S         -0.06487   0.13220  -0.17111  -0.12478  -0.18114
  34        2S         -0.00977   0.02836  -0.08723  -0.06496  -0.09426
  35 5   H  1S          0.01253  -0.03118  -0.04471   0.02282   0.02682
  36        2S          0.00394  -0.00923  -0.03372   0.03059   0.03825
  37 6   H  1S          0.01254  -0.03119  -0.05363  -0.00918  -0.01662
  38        2S          0.00395  -0.00924  -0.04767  -0.01927  -0.02981
                           6         7         8         9        10
   6        3S          0.25420
   7        3PX        -0.05397   0.02355
   8        3PY         0.00751   0.00909   0.06869
   9        3PZ         0.00560   0.00992   0.02424   0.08456
  10        4XX        -0.00609   0.00289  -0.00188  -0.00358   0.00158
  11        4YY        -0.00261  -0.00114  -0.00020   0.00253  -0.00066
  12        4ZZ         0.00545  -0.00315   0.00228   0.00119  -0.00093
  13        4XY         0.00223  -0.00199   0.00186  -0.00960   0.00008
  14        4XZ         0.00353  -0.00321  -0.00967  -0.00420   0.00005
  15        4YZ         0.01504  -0.00353   0.00176   0.00206  -0.00063
  16 2   N  1S          0.01550  -0.00454   0.00063   0.00048  -0.00781
  17        2S         -0.04322   0.00953  -0.00133  -0.00102   0.01663
  18        2PX        -0.04433  -0.05907   0.01137  -0.00382  -0.01295
  19        2PY         0.00624   0.01123   0.09473  -0.09925   0.00804
  20        2PZ         0.00448  -0.00374  -0.09887   0.03619   0.00544
  21        3S         -0.08006   0.01118  -0.00155  -0.00122   0.01575
  22        3PX        -0.01078  -0.02743   0.00496  -0.00495  -0.00502
  23        3PY         0.00156   0.00486   0.05941  -0.06957   0.00460
  24        3PZ         0.00105  -0.00488  -0.06926   0.01806   0.00294
  25        4XX         0.00670  -0.00149  -0.00209  -0.00220   0.00034
  26        4YY        -0.00090  -0.00031   0.00180   0.00075  -0.00045
  27        4ZZ        -0.00211  -0.00099   0.00068   0.00174  -0.00034
  28        4XY        -0.00147  -0.00131  -0.00694  -0.00265   0.00020
  29        4XZ        -0.00137  -0.00149  -0.00269  -0.00886   0.00049
  30        4YZ        -0.00199  -0.00082   0.00129   0.00166   0.00017
  31 3   H  1S          0.13908  -0.01954   0.07111   0.09373  -0.00911
  32        2S          0.04129  -0.00606   0.03715   0.04934  -0.00511
  33 4   H  1S          0.13911  -0.05643  -0.06056  -0.08579  -0.00184
  34        2S          0.04128  -0.02564  -0.03272  -0.04601  -0.00093
  35 5   H  1S         -0.02171  -0.00897   0.02149   0.02808  -0.00297
  36        2S          0.00484  -0.00341   0.01641   0.02176  -0.00348
  37 6   H  1S         -0.02175  -0.01988  -0.01748  -0.02509   0.00428
  38        2S          0.00482  -0.01201  -0.01426  -0.02015  -0.00016
                          11        12        13        14        15
  11        4YY         0.00093
  12        4ZZ         0.00084   0.00118
  13        4XY        -0.00019   0.00029   0.00180
  14        4XZ         0.00011  -0.00003   0.00032   0.00201
  15        4YZ         0.00002   0.00053  -0.00002  -0.00003   0.00101
  16 2   N  1S          0.00398   0.00468   0.00205   0.00166   0.00091
  17        2S         -0.00845  -0.01015  -0.00441  -0.00363  -0.00236
  18        2PX         0.01374   0.01597   0.00844   0.00631   0.00173
  19        2PY        -0.00861  -0.00177   0.02614  -0.00378  -0.00276
  20        2PZ        -0.00082  -0.00635  -0.00368   0.02534  -0.00357
  21        3S         -0.00658  -0.00915  -0.00414  -0.00364  -0.00409
  22        3PX         0.00534   0.00664   0.00423   0.00308   0.00111
  23        3PY        -0.00505  -0.00052   0.01699  -0.00291  -0.00169
  24        3PZ        -0.00002  -0.00364  -0.00284   0.01602  -0.00218
  25        4XX        -0.00036  -0.00020   0.00023   0.00052   0.00026
  26        4YY         0.00032   0.00039   0.00009  -0.00024   0.00005
  27        4ZZ         0.00039   0.00038  -0.00014  -0.00010   0.00005
  28        4XY         0.00008  -0.00017   0.00011   0.00134  -0.00026
  29        4XZ        -0.00025  -0.00012   0.00134   0.00094  -0.00032
  30        4YZ         0.00007   0.00007  -0.00024  -0.00031   0.00007
  31 3   H  1S          0.00211   0.00698  -0.00527  -0.00741   0.01105
  32        2S          0.00222   0.00390  -0.00312  -0.00459   0.00423
  33 4   H  1S         -0.00147   0.00329   0.00912   0.01251   0.00667
  34        2S          0.00015   0.00178   0.00516   0.00686   0.00171
  35 5   H  1S          0.00347   0.00362  -0.00699  -0.00980   0.00238
  36        2S          0.00227   0.00276  -0.00266  -0.00398   0.00178
  37 6   H  1S         -0.00012  -0.00003   0.00736   0.01014  -0.00200
  38        2S          0.00063   0.00108   0.00391   0.00512  -0.00022
                          16        17        18        19        20
  16 2   N  1S          2.05800
  17        2S         -0.11867   0.40565
  18        2PX        -0.00507   0.01042   0.52622
  19        2PY         0.00071  -0.00145   0.00380   0.55617
  20        2PZ         0.00052  -0.00107   0.00216  -0.00494   0.55337
  21        3S         -0.17636   0.40054   0.06261  -0.00867  -0.00649
  22        3PX        -0.00761   0.01593   0.22630   0.01341   0.00604
  23        3PY         0.00106  -0.00222   0.01343   0.34408  -0.03219
  24        3PZ         0.00078  -0.00164   0.00602  -0.03221   0.32585
  25        4XX        -0.01882   0.00412  -0.00354   0.00341   0.00669
  26        4YY        -0.01415  -0.00621   0.00574  -0.00021  -0.00523
  27        4ZZ        -0.01781   0.00172   0.01221  -0.00520  -0.00294
  28        4XY         0.00003  -0.00009   0.00458  -0.00334   0.01826
  29        4XZ        -0.00085   0.00182   0.00738   0.01842   0.00835
  30        4YZ        -0.00690   0.01499   0.01141  -0.00406  -0.00449
  31 3   H  1S          0.01097  -0.02719   0.03337  -0.02227  -0.02696
  32        2S          0.00701  -0.01614   0.03999  -0.02418  -0.02894
  33 4   H  1S          0.01096  -0.02718   0.04286   0.01163   0.01912
  34        2S          0.00701  -0.01613   0.04998   0.01167   0.01964
  35 5   H  1S         -0.05392   0.11716   0.10556  -0.16605  -0.21411
  36        2S          0.00133  -0.00558   0.03492  -0.05553  -0.07150
  37 6   H  1S         -0.05392   0.11716   0.18713   0.12533   0.18396
  38        2S          0.00133  -0.00558   0.06219   0.04204   0.06147
                          21        22        23        24        25
  21        3S          0.40698
  22        3PX         0.03681   0.09834
  23        3PY        -0.00510   0.01285   0.21525
  24        3PZ        -0.00381   0.00513  -0.03614   0.19457
  25        4XX         0.00320  -0.00093   0.00184   0.00397   0.00059
  26        4YY        -0.00489   0.00218   0.00019  -0.00313  -0.00010
  27        4ZZ         0.00362   0.00511  -0.00291  -0.00149  -0.00005
  28        4XY         0.00039   0.00214  -0.00250   0.01154   0.00028
  29        4XZ         0.00231   0.00382   0.01168   0.00480   0.00037
  30        4YZ         0.01599   0.00519  -0.00222  -0.00254  -0.00001
  31 3   H  1S         -0.04162   0.01573  -0.02074  -0.02636  -0.00019
  32        2S         -0.01716   0.01633  -0.01716  -0.02150  -0.00135
  33 4   H  1S         -0.04157   0.02570   0.01497   0.02208   0.00653
  34        2S         -0.01713   0.02431   0.01151   0.01729   0.00253
  35 5   H  1S          0.13056   0.04284  -0.09082  -0.11828  -0.00338
  36        2S         -0.00163   0.01284  -0.03141  -0.04097  -0.00185
  37 6   H  1S          0.13056   0.08855   0.07253   0.10475   0.00363
  38        2S         -0.00162   0.02878   0.02563   0.03667   0.00131
                          26        27        28        29        30
  26        4YY         0.00036
  27        4ZZ         0.00030   0.00052
  28        4XY        -0.00019  -0.00003   0.00096
  29        4XZ        -0.00013  -0.00014   0.00064   0.00142
  30        4YZ        -0.00002   0.00042  -0.00012  -0.00011   0.00088
  31 3   H  1S          0.00197   0.00206  -0.00711  -0.00957   0.00225
  32        2S          0.00157   0.00188  -0.00379  -0.00524   0.00172
  33 4   H  1S         -0.00137  -0.00133   0.00621   0.00894  -0.00181
  34        2S         -0.00035  -0.00007   0.00391   0.00547  -0.00063
  35 5   H  1S          0.00186   0.00601  -0.00612  -0.00809   0.00977
  36        2S          0.00144   0.00197  -0.00288  -0.00406   0.00189
  37 6   H  1S         -0.00163   0.00249   0.00777   0.01126   0.00553
  38        2S         -0.00013   0.00038   0.00339   0.00468  -0.00003
                          31        32        33        34        35
  31 3   H  1S          0.20619
  32        2S          0.09381   0.04695
  33 4   H  1S         -0.03830  -0.03540   0.20619
  34        2S         -0.03538  -0.02218   0.09376   0.04691
  35 5   H  1S          0.03584   0.03188  -0.02644  -0.01468   0.19060
  36        2S          0.03575   0.02243  -0.01808  -0.01035   0.05350
  37 6   H  1S         -0.02646  -0.01469   0.03583   0.03186  -0.04191
  38        2S         -0.01809  -0.01036   0.03572   0.02242  -0.02914
                          36        37        38
  36        2S          0.02191
  37 6   H  1S         -0.02914   0.19061
  38        2S         -0.01188   0.05350   0.02190
    Full Mulliken population analysis:
                           1         2         3         4         5
   1 1   C  1S          2.05360
   2        2S         -0.01649   0.36278
   3        2PX         0.00000   0.00000   0.42647
   4        2PY         0.00000   0.00000   0.00000   0.32434
   5        2PZ         0.00000   0.00000   0.00000   0.00000   0.40289
   6        3S         -0.02767   0.22147   0.00000   0.00000   0.00000
   7        3PX         0.00000   0.00000   0.05049   0.00000   0.00000
   8        3PY         0.00000   0.00000   0.00000   0.08380   0.00000
   9        3PZ         0.00000   0.00000   0.00000   0.00000   0.10337
  10        4XX        -0.00145   0.00044   0.00000   0.00000   0.00000
  11        4YY        -0.00120  -0.00718   0.00000   0.00000   0.00000
  12        4ZZ        -0.00148  -0.00167   0.00000   0.00000   0.00000
  13        4XY         0.00000   0.00000   0.00000   0.00000   0.00000
  14        4XZ         0.00000   0.00000   0.00000   0.00000   0.00000
  15        4YZ         0.00000   0.00000   0.00000   0.00000   0.00000
  16 2   N  1S          0.00000  -0.00059  -0.00320  -0.00006  -0.00003
  17        2S         -0.00038   0.01050   0.04581   0.00088   0.00049
  18        2PX        -0.00223   0.04153   0.09887   0.00344   0.00110
  19        2PY        -0.00004   0.00080   0.00343   0.02082   0.00093
  20        2PZ        -0.00002   0.00044   0.00110   0.00093   0.01287
  21        3S         -0.00024   0.00147   0.04488   0.00087   0.00048
  22        3PX        -0.00414   0.03703   0.03002   0.00182   0.00028
  23        3PY        -0.00008   0.00072   0.00181   0.03605   0.00083
  24        3PZ        -0.00004   0.00039   0.00028   0.00083   0.01828
  25        4XX        -0.00043   0.00352  -0.00018   0.00039   0.00029
  26        4YY         0.00001  -0.00049  -0.00093   0.00004  -0.00003
  27        4ZZ         0.00000  -0.00059  -0.00113  -0.00004   0.00003
  28        4XY        -0.00002   0.00015   0.00033   0.00265  -0.00005
  29        4XZ        -0.00001   0.00009   0.00024  -0.00005   0.00340
  30        4YZ         0.00000  -0.00001  -0.00002   0.00005   0.00009
  31 3   H  1S         -0.00214   0.03634   0.01168   0.03434   0.05727
  32        2S         -0.00090   0.01353   0.00420   0.01275   0.02130
  33 4   H  1S         -0.00215   0.03637   0.04002   0.02035   0.04294
  34        2S         -0.00090   0.01353   0.01462   0.00760   0.01602
  35 5   H  1S          0.00000  -0.00041  -0.00098  -0.00023  -0.00031
  36        2S          0.00007  -0.00125  -0.00368  -0.00153  -0.00222
  37 6   H  1S          0.00000  -0.00041  -0.00138  -0.00003  -0.00011
  38        2S          0.00007  -0.00125  -0.00610  -0.00033  -0.00100
                           6         7         8         9        10
   6        3S          0.25420
   7        3PX         0.00000   0.02355
   8        3PY         0.00000   0.00000   0.06869
   9        3PZ         0.00000   0.00000   0.00000   0.08456
  10        4XX        -0.00384   0.00000   0.00000   0.00000   0.00158
  11        4YY        -0.00164   0.00000   0.00000   0.00000  -0.00022
  12        4ZZ         0.00344   0.00000   0.00000   0.00000  -0.00031
  13        4XY         0.00000   0.00000   0.00000   0.00000   0.00000
  14        4XZ         0.00000   0.00000   0.00000   0.00000   0.00000
  15        4YZ         0.00000   0.00000   0.00000   0.00000   0.00000
  16 2   N  1S          0.00087  -0.00048  -0.00001  -0.00001  -0.00042
  17        2S         -0.01367   0.00478   0.00009   0.00005   0.00552
  18        2PX         0.00824   0.00669   0.00048  -0.00012   0.00484
  19        2PY         0.00016   0.00047   0.01745   0.00043   0.00064
  20        2PZ         0.00009  -0.00012   0.00043   0.00676   0.00032
  21        3S         -0.04579   0.00697   0.00013   0.00008   0.00596
  22        3PX         0.00599   0.00103   0.00042  -0.00031   0.00213
  23        3PY         0.00012   0.00041   0.03306   0.00061   0.00042
  24        3PZ         0.00006  -0.00031   0.00060   0.01015   0.00020
  25        4XX         0.00249  -0.00061   0.00017   0.00014   0.00016
  26        4YY        -0.00025  -0.00014  -0.00007  -0.00004  -0.00009
  27        4ZZ        -0.00059  -0.00045  -0.00004  -0.00005  -0.00006
  28        4XY         0.00003   0.00002   0.00111  -0.00001  -0.00003
  29        4XZ         0.00002   0.00001  -0.00001   0.00143  -0.00005
  30        4YZ         0.00000   0.00000   0.00002   0.00004   0.00000
  31 3   H  1S          0.05256   0.00349   0.02106   0.03580  -0.00145
  32        2S          0.02913   0.00122   0.01244   0.02130  -0.00185
  33 4   H  1S          0.05258   0.01834   0.01373   0.02826  -0.00047
  34        2S          0.02912   0.00941   0.00838   0.01713  -0.00036
  35 5   H  1S         -0.00203  -0.00173  -0.00189  -0.00287  -0.00006
  36        2S          0.00146  -0.00129  -0.00284  -0.00437  -0.00047
  37 6   H  1S         -0.00203  -0.00448  -0.00052  -0.00148   0.00011
  38        2S          0.00145  -0.00532  -0.00084  -0.00234  -0.00002
                          11        12        13        14        15
  11        4YY         0.00093
  12        4ZZ         0.00028   0.00118
  13        4XY         0.00000   0.00000   0.00180
  14        4XZ         0.00000   0.00000   0.00000   0.00201
  15        4YZ         0.00000   0.00000   0.00000   0.00000   0.00101
  16 2   N  1S          0.00001   0.00001  -0.00003  -0.00002   0.00000
  17        2S         -0.00061  -0.00071   0.00028   0.00017  -0.00002
  18        2PX        -0.00145  -0.00162   0.00077   0.00043  -0.00002
  19        2PY         0.00012  -0.00002   0.00416   0.00005   0.00005
  20        2PZ        -0.00001   0.00007   0.00004   0.00421   0.00008
  21        3S         -0.00167  -0.00231   0.00013   0.00008  -0.00001
  22        3PX        -0.00235  -0.00291   0.00011   0.00006  -0.00001
  23        3PY        -0.00015  -0.00003   0.00328   0.00002   0.00003
  24        3PZ         0.00000  -0.00008   0.00002   0.00314   0.00006
  25        4XX        -0.00007  -0.00004  -0.00003  -0.00005   0.00001
  26        4YY         0.00003   0.00001   0.00000   0.00001   0.00000
  27        4ZZ         0.00001   0.00004   0.00001   0.00000   0.00000
  28        4XY         0.00000   0.00001  -0.00003   0.00003  -0.00001
  29        4XZ         0.00001   0.00000   0.00003  -0.00030  -0.00002
  30        4YZ         0.00000   0.00000  -0.00001  -0.00002   0.00001
  31 3   H  1S          0.00049   0.00213   0.00062   0.00112   0.00277
  32        2S          0.00084   0.00154   0.00009   0.00016   0.00025
  33 4   H  1S         -0.00027   0.00085   0.00149   0.00297   0.00110
  34        2S          0.00006   0.00068   0.00020   0.00039   0.00007
  35 5   H  1S          0.00002   0.00003   0.00009   0.00015   0.00002
  36        2S          0.00022   0.00028   0.00010   0.00017   0.00003
  37 6   H  1S          0.00000   0.00000   0.00004   0.00010   0.00000
  38        2S          0.00006   0.00010   0.00006   0.00015   0.00000
                          16        17        18        19        20
  16 2   N  1S          2.05800
  17        2S         -0.02637   0.40565
  18        2PX         0.00000   0.00000   0.52622
  19        2PY         0.00000   0.00000   0.00000   0.55617
  20        2PZ         0.00000   0.00000   0.00000   0.00000   0.55337
  21        3S         -0.03031   0.31062   0.00000   0.00000   0.00000
  22        3PX         0.00000   0.00000   0.11751   0.00000   0.00000
  23        3PY         0.00000   0.00000   0.00000   0.17868   0.00000
  24        3PZ         0.00000   0.00000   0.00000   0.00000   0.16921
  25        4XX        -0.00095   0.00262   0.00000   0.00000   0.00000
  26        4YY        -0.00071  -0.00395   0.00000   0.00000   0.00000
  27        4ZZ        -0.00090   0.00109   0.00000   0.00000   0.00000
  28        4XY         0.00000   0.00000   0.00000   0.00000   0.00000
  29        4XZ         0.00000   0.00000   0.00000   0.00000   0.00000
  30        4YZ         0.00000   0.00000   0.00000   0.00000   0.00000
  31 3   H  1S          0.00000  -0.00013  -0.00027  -0.00009  -0.00012
  32        2S          0.00009  -0.00154  -0.00272  -0.00080  -0.00113
  33 4   H  1S          0.00000  -0.00013  -0.00041  -0.00002  -0.00005
  34        2S          0.00009  -0.00154  -0.00404  -0.00015  -0.00046
  35 5   H  1S         -0.00180   0.02989   0.01298   0.03025   0.05021
  36        2S          0.00010  -0.00235   0.00260   0.00613   0.01017
  37 6   H  1S         -0.00180   0.02989   0.03967   0.01698   0.03680
  38        2S          0.00010  -0.00235   0.00799   0.00345   0.00745
                          21        22        23        24        25
  21        3S          0.40698
  22        3PX         0.00000   0.09834
  23        3PY         0.00000   0.00000   0.21525
  24        3PZ         0.00000   0.00000   0.00000   0.19457
  25        4XX         0.00214   0.00000   0.00000   0.00000   0.00059
  26        4YY        -0.00328   0.00000   0.00000   0.00000  -0.00003
  27        4ZZ         0.00243   0.00000   0.00000   0.00000  -0.00002
  28        4XY         0.00000   0.00000   0.00000   0.00000   0.00000
  29        4XZ         0.00000   0.00000   0.00000   0.00000   0.00000
  30        4YZ         0.00000   0.00000   0.00000   0.00000   0.00000
  31 3   H  1S         -0.00269  -0.00221  -0.00143  -0.00212   0.00000
  32        2S         -0.00428  -0.00502  -0.00258  -0.00378  -0.00017
  33 4   H  1S         -0.00269  -0.00430  -0.00039  -0.00107   0.00014
  34        2S         -0.00428  -0.00888  -0.00066  -0.00183   0.00036
  35 5   H  1S          0.05266   0.00906   0.02846   0.04771  -0.00066
  36        2S         -0.00114   0.00265   0.00959   0.01610  -0.00072
  37 6   H  1S          0.05266   0.03229   0.01691   0.03604   0.00109
  38        2S         -0.00113   0.01022   0.00582   0.01229   0.00054
                          26        27        28        29        30
  26        4YY         0.00036
  27        4ZZ         0.00010   0.00052
  28        4XY         0.00000   0.00000   0.00096
  29        4XZ         0.00000   0.00000   0.00000   0.00142
  30        4YZ         0.00000   0.00000   0.00000   0.00000   0.00088
  31 3   H  1S          0.00001   0.00001   0.00008   0.00013   0.00002
  32        2S          0.00015   0.00018   0.00014   0.00022   0.00004
  33 4   H  1S          0.00000  -0.00001   0.00003   0.00009   0.00000
  34        2S         -0.00003  -0.00001   0.00006   0.00017   0.00000
  35 5   H  1S          0.00048   0.00202   0.00084   0.00144   0.00257
  36        2S          0.00058   0.00082   0.00008   0.00015   0.00010
  37 6   H  1S         -0.00034   0.00071   0.00137   0.00294   0.00092
  38        2S         -0.00005   0.00015   0.00012   0.00025   0.00000
                          31        32        33        34        35
  31 3   H  1S          0.20619
  32        2S          0.06175   0.04695
  33 4   H  1S         -0.00044  -0.00438   0.20619
  34        2S         -0.00438  -0.00793   0.06172   0.04691
  35 5   H  1S          0.00000   0.00034  -0.00003  -0.00071   0.19060
  36        2S          0.00038   0.00175  -0.00088  -0.00208   0.03522
  37 6   H  1S         -0.00003  -0.00071   0.00000   0.00034  -0.00093
  38        2S         -0.00088  -0.00208   0.00038   0.00175  -0.00467
                          36        37        38
  36        2S          0.02191
  37 6   H  1S         -0.00467   0.19061
  38        2S         -0.00499   0.03522   0.02190
     Gross orbital populations:
                           1
   1 1   C  1S          1.99174
   2        2S          0.75078
   3        2PX         0.75665
   4        2PY         0.54968
   5        2PZ         0.67910
   6        3S          0.56598
   7        3PX         0.11196
   8        3PY         0.25586
   9        3PZ         0.29852
  10        4XX         0.01121
  11        4YY        -0.01375
  12        4ZZ        -0.00055
  13        4XY         0.01319
  14        4XZ         0.01502
  15        4YZ         0.00539
  16 2   N  1S          1.99160
  17        2S          0.79461
  18        2PX         0.86047
  19        2PY         0.84005
  20        2PZ         0.85265
  21        3S          0.78872
  22        3PX         0.31883
  23        3PY         0.52674
  24        3PZ         0.50069
  25        4XX         0.01070
  26        4YY        -0.00865
  27        4ZZ         0.00425
  28        4XY         0.00787
  29        4XZ         0.01159
  30        4YZ         0.00466
  31 3   H  1S          0.50984
  32        2S          0.19049
  33 4   H  1S          0.50987
  34        2S          0.19039
  35 5   H  1S          0.47573
  36        2S          0.07620
  37 6   H  1S          0.47575
  38        2S          0.07618
          Condensed to atoms (all electrons):
               1          2          3          4          5          6
     1  C    4.809881   0.487765   0.372057   0.372057  -0.025485  -0.025498
     2  N    0.487765   6.455068  -0.030011  -0.029979   0.310960   0.310986
     3  H    0.372057  -0.030011   0.376647  -0.017129   0.002468  -0.003706
     4  H    0.372057  -0.029979  -0.017129   0.376545  -0.003698   0.002466
     5  H   -0.025485   0.310960   0.002468  -0.003698   0.282944  -0.015265
     6  H   -0.025498   0.310986  -0.003706   0.002466  -0.015265   0.282943
 Mulliken charges:
               1
     1  C    0.009223
     2  N   -0.504788
     3  H    0.299674
     4  H    0.299739
     5  H    0.448076
     6  H    0.448075
 Sum of Mulliken charges =   1.00000
 Mulliken charges with hydrogens summed into heavy atoms:
               1
     1  C    0.608636
     2  N    0.391364
 Electronic spatial extent (au):  <R**2>=            255.1085
 Charge=              1.0000 electrons
 Dipole moment (field-independent basis, Debye):
    X=             -8.1272    Y=              1.0683    Z=              0.6974  Tot=              8.2268
 Quadrupole moment (field-independent basis, Debye-Ang):
   XX=              8.9923   YY=            -10.0699   ZZ=             -8.7906
   XY=             -2.3375   XZ=             -1.2766   YZ=              2.5954
 Traceless Quadrupole moment (field-independent basis, Debye-Ang):
   XX=             12.2817   YY=             -6.7805   ZZ=             -5.5012
   XY=             -2.3375   XZ=             -1.2766   YZ=              2.5954
 Octapole moment (field-independent basis, Debye-Ang**2):
  XXX=              5.3899  YYY=             -7.4774  ZZZ=             -4.4060  XYY=             18.3332
  XXY=              3.6736  XXZ=              1.6477  XZZ=             16.6252  YZZ=             -1.5766
  YYZ=             -0.6387  XYZ=             -4.1283
 Hexadecapole moment (field-independent basis, Debye-Ang**3):
 XXXX=           -112.1246 YYYY=            -16.9955 ZZZZ=            -15.5969 XXXY=              0.1801
 XXXZ=              3.0548 YYYX=             15.0901 YYYZ=             -2.1936 ZZZX=              8.7442
 ZZZY=             -1.4603 XXYY=            -41.9754 XXZZ=            -38.0106 YYZZ=             -4.1738
 XXYZ=              8.6997 YYXZ=              0.9967 ZZXY=              2.9676
 N-N= 3.861072231260D+01 E-N=-2.924891037529D+02  KE= 9.399119953715D+01
 Orbital energies and kinetic energies (alpha):
                                 1                 2
   1         O               -14.690443         21.955301
   2         O               -10.547338         15.880296
   3         O                -1.247169          2.016077
   4         O                -0.952929          1.642747
   5         O                -0.847951          1.310900
   6         O                -0.789491          1.470714
   7         O                -0.682361          1.224594
   8         O                -0.653183          1.494971
   9         V                -0.319431          1.587517
  10         V                -0.167912          1.123931
  11         V                -0.135339          1.044898
  12         V                -0.101748          1.166300
  13         V                -0.014413          1.106151
  14         V                 0.038346          1.401030
  15         V                 0.275344          1.979335
  16         V                 0.278261          2.194580
  17         V                 0.318363          1.662047
  18         V                 0.384445          1.609912
  19         V                 0.441694          2.640642
  20         V                 0.453172          2.332351
  21         V                 0.557569          2.387214
  22         V                 0.617192          3.187866
  23         V                 0.624145          2.941518
  24         V                 0.671024          2.466866
  25         V                 0.938895          2.278936
  26         V                 1.087474          2.500804
  27         V                 1.138719          2.712534
  28         V                 1.184711          2.635518
  29         V                 1.508698          2.999686
  30         V                 1.581766          3.117502
  31         V                 1.731804          3.501391
  32         V                 1.873240          3.711695
  33         V                 2.047332          3.723839
  34         V                 2.106637          3.675818
  35         V                 2.385116          4.883427
  36         V                 2.435544          4.243176
  37         V                 3.462466          9.904729
  38         V                 3.808782          9.918525
 Total kinetic energy from orbitals= 9.399119953715D+01

 Test job not archived.
 1\1\GINC-EAM\SP\RB3LYP\6-31G(d)\C1H4N1(1+)\DULIKAI\30-Apr-2014\0\\# b3
 lyp/6-31g* scf=(tight,maxcycle=10000) iop(9/40=20) nosymm pop=full\\[0
 ] [0]\\1,1\C,0,-2.4479098,0.3277576,0.2230023\N,0,-1.1874715,0.1525632
 ,0.0927697\H,0,-2.8246486,0.953119,1.0294774\H,0,-3.1339103,-0.1507032
 ,-0.4723661\H,0,-0.7961654,-0.4269922,-0.6533647\H,0,-0.5130939,0.5836
 774,0.729167\\Version=EM64L-G09RevD.01\HF=-94.9741087\RMSD=3.976e-09\D
 ipole=0.167057,-0.0236293,-0.0169046\Quadrupole=9.1311783,-5.041149,-4
 .0900293,-1.7378969,-0.949141,1.9295928\PG=C01 [X(C1H4N1)]\\@


 WISDOM IS KNOWING WHAT TO DO,
 SKILL IS KNOWING HOW TO DO IT,
 AND VIRTUE IS NOT DOING IT.
 Job cpu time:       0 days  0 hours  0 minutes  3.9 seconds.
 File lengths (MBytes):  RWF=      5 Int=      0 D2E=      0 Chk=      1 Scr=      1
 Normal termination of Gaussian 09 at Wed Apr 30 11:42:45 2014.
 Initial command:
 /opt/g09_D01_em64t/g09/l1.exe "/tmp/Gau-21648.inp" -scrdir="/tmp/"
 Entering Link 1 = /opt/g09_D01_em64t/g09/l1.exe PID=     21660.
  
 Copyright (c) 1988,1990,1992,1993,1995,1998,2003,2009,2013,
            Gaussian, Inc.  All Rights Reserved.
  
 This is part of the Gaussian(R) 09 program.  It is based on
 the Gaussian(R) 03 system (copyright 2003, Gaussian, Inc.),
 the Gaussian(R) 98 system (copyright 1998, Gaussian, Inc.),
 the Gaussian(R) 94 system (copyright 1995, Gaussian, Inc.),
 the Gaussian 92(TM) system (copyright 1992, Gaussian, Inc.),
 the Gaussian 90(TM) system (copyright 1990, Gaussian, Inc.),
 the Gaussian 88(TM) system (copyright 1988, Gaussian, Inc.),
 the Gaussian 86(TM) system (copyright 1986, Carnegie Mellon
 University), and the Gaussian 82(TM) system (copyright 1983,
 Carnegie Mellon University). Gaussian is a federally registered
 trademark of Gaussian, Inc.
  
 This software contains proprietary and confidential information,
 including trade secrets, belonging to Gaussian, Inc.
  
 This software is provided under written license and may be
 used, copied, transmitted, or stored only in accord with that
 written license.
  
 The following legend is applicable only to US Government
 contracts under FAR:
  
                    RESTRICTED RIGHTS LEGEND
  
 Use, reproduction and disclosure by the US Government is
 subject to restrictions as set forth in subparagraphs (a)
 and (c) of the Commercial Computer Software - Restricted
 Rights clause in FAR 52.227-19.
  
 Gaussian, Inc.
 340 Quinnipiac St., Bldg. 40, Wallingford CT 06492
  
  
 ---------------------------------------------------------------
 Warning -- This program may not be used in any manner that
 competes with the business of Gaussian, Inc. or will provide
 assistance to any competitor of Gaussian, Inc.  The licensee
 of this program is prohibited from giving any competitor of
 Gaussian, Inc. access to this program.  By using this program,
 the user acknowledges that Gaussian, Inc. is engaged in the
 business of creating and licensing software in the field of
 computational chemistry and represents and warrants to the
 licensee that it is not a competitor of Gaussian, Inc. and that
 it will not use this program in any manner prohibited above.
 ---------------------------------------------------------------
  

 Cite this work as:
 Gaussian 09, Revision D.01,
 M. J. Frisch, G. W. Trucks, H. B. Schlegel, G. E. Scuseria, 
 M. A. Robb, J. R. Cheeseman, G. Scalmani, V. Barone, B. Mennucci, 
 G. A. Petersson, H. Nakatsuji, M. Caricato, X. Li, H. P. Hratchian, 
 A. F. Izmaylov, J. Bloino, G. Zheng, J. L. Sonnenberg, M. Hada, 
 M. Ehara, K. Toyota, R. Fukuda, J. Hasegawa, M. Ishida, T. Nakajima, 
 Y. Honda, O. Kitao, H. Nakai, T. Vreven, J. A. Montgomery, Jr., 
 J. E. Peralta, F. Ogliaro, M. Bearpark, J. J. Heyd, E. Brothers, 
 K. N. Kudin, V. N. Staroverov, T. Keith, R. Kobayashi, J. Normand, 
 K. Raghavachari, A. Rendell, J. C. Burant, S. S. Iyengar, J. Tomasi, 
 M. Cossi, N. Rega, J. M. Millam, M. Klene, J. E. Knox, J. B. Cross, 
 V. Bakken, C. Adamo, J. Jaramillo, R. Gomperts, R. E. Stratmann, 
 O. Yazyev, A. J. Austin, R. Cammi, C. Pomelli, J. W. Ochterski, 
 R. L. Martin, K. Morokuma, V. G. Zakrzewski, G. A. Voth, 
 P. Salvador, J. J. Dannenberg, S. Dapprich, A. D. Daniels, 
 O. Farkas, J. B. Foresman, J. V. Ortiz, J. Cioslowski, 
 and D. J. Fox, Gaussian, Inc., Wallingford CT, 2013.
 
 ******************************************
 Gaussian 09:  EM64L-G09RevD.01 24-Apr-2013
                30-Apr-2014 
 ******************************************
 %chk=gaussian.chk
 %mem=1GB
 %nproc=2
 Will use up to    2 processors via shared memory.
 %nproclinda=1
 Will use up to    1 processors via Linda.
 ----------------------------------------------------------------------
 # force b3lyp/ChkBasis scf=(tight,maxcycle=10000) iop(9/40=20) nosymm 
 pop=full geom=AllCheck Guess=Read
 ----------------------------------------------------------------------
 1/10=7,29=7,30=1,38=1/1,3;
 2/12=2,15=1,40=1/2;
 3/5=7,6=2,11=2,14=-4,16=1,25=1,30=1,67=1,71=1,74=-5,116=-2/1,2,3;
 4/5=1/1;
 5/5=2,7=10000,32=2,38=6/2;
 6/7=3,28=1/1;
 7/29=1,30=1/1,2,3,16;
 1/10=7,30=1/3;
 99//99;
 Structure from the checkpoint file:  "gaussian.chk"
 -------
 [0] [0]
 -------
 Charge =  1 Multiplicity = 1
 Z-Matrix found in file.
 C,0,-2.4479098,0.3277576,0.2230023
 N,0,-1.1874715,0.1525632,0.0927697
 H,0,-2.8246486,0.953119,1.0294774
 H,0,-3.1339103,-0.1507032,-0.4723661
 H,0,-0.7961654,-0.4269922,-0.6533647
 H,0,-0.5130939,0.5836774,0.729167
 Recover connectivity data from disk.

 GradGradGradGradGradGradGradGradGradGradGradGradGradGradGradGradGradGrad
 Berny optimization.
 Initialization pass.
 Trust Radius=3.00D-01 FncErr=1.00D-07 GrdErr=1.00D-07
 Number of steps in this run=      2 maximum allowed number of steps=      2.
 GradGradGradGradGradGradGradGradGradGradGradGradGradGradGradGradGradGrad

                          Input orientation:                          
 ---------------------------------------------------------------------
 Center     Atomic      Atomic             Coordinates (Angstroms)
 Number     Number       Type             X           Y           Z
 ---------------------------------------------------------------------
      1          6           0       -2.447910    0.327758    0.223002
      2          7           0       -1.187472    0.152563    0.092770
      3          1           0       -2.824649    0.953119    1.029477
      4          1           0       -3.133910   -0.150703   -0.472366
      5          1           0       -0.796165   -0.426992   -0.653365
      6          1           0       -0.513094    0.583677    0.729167
 ---------------------------------------------------------------------
                    Distance matrix (angstroms):
                    1          2          3          4          5
     1  C    0.000000
     2  N    1.279202   0.000000
     3  H    1.087847   2.049063   0.000000
     4  H    1.087685   2.049384   1.889339   0.000000
     5  H    2.016414   1.022605   2.975132   2.360963   0.000000
     6  H    2.016237   1.022568   2.360076   2.975177   1.735793
                    6
     6  H    0.000000
 Symmetry turned off by external request.
 Stoichiometry    CH4N(1+)
 Framework group  C1[X(CH4N)]
 Deg. of freedom    12
 Full point group                 C1      NOp   1
 Rotational constants (GHZ):    152.3582657     31.2108818     25.9043471
 Basis read from chk: "gaussian.chk" (6D, 7F)
    38 basis functions,    72 primitive gaussians,    38 cartesian basis functions
     8 alpha electrons        8 beta electrons
       nuclear repulsion energy        38.6107223126 Hartrees.
 NAtoms=    6 NActive=    6 NUniq=    6 SFac= 1.00D+00 NAtFMM=   60 NAOKFM=F Big=F
 Integral buffers will be    131072 words long.
 Raffenetti 2 integral format.
 Two-electron integral symmetry is turned off.
 One-electron integrals computed using PRISM.
 NBasis=    38 RedAO= T EigKep=  8.39D-03  NBF=    38
 NBsUse=    38 1.00D-06 EigRej= -1.00D+00 NBFU=    38
 Initial guess from the checkpoint file:  "gaussian.chk"
 B after Tr=     0.000000    0.000000    0.000000
         Rot=    1.000000    0.000000    0.000000    0.000000 Ang=   0.00 deg.
 Keep R1 ints in memory in canonical form, NReq=101191747.
 Requested convergence on RMS density matrix=1.00D-08 within**** cycles.
 Requested convergence on MAX density matrix=1.00D-06.
 Requested convergence on             energy=1.00D-06.
 No special actions if energy rises.
 SCF Done:  E(RB3LYP) =  -94.9741087318     A.U. after    1 cycles
            NFock=  1  Conv=0.53D-09     -V/T= 2.0105

 **********************************************************************

            Population analysis using the SCF density.

 **********************************************************************

 Alpha  occ. eigenvalues --  -14.69044 -10.54734  -1.24717  -0.95293  -0.84795
 Alpha  occ. eigenvalues --   -0.78949  -0.68236  -0.65318
 Alpha virt. eigenvalues --   -0.31943  -0.16791  -0.13534  -0.10175  -0.01441
 Alpha virt. eigenvalues --    0.03835   0.27534   0.27826   0.31836   0.38444
 Alpha virt. eigenvalues --    0.44169   0.45317   0.55757   0.61719   0.62415
 Alpha virt. eigenvalues --    0.67102   0.93890   1.08747   1.13872   1.18471
 Alpha virt. eigenvalues --    1.50870   1.58177   1.73180   1.87324   2.04733
 Alpha virt. eigenvalues --    2.10664   2.38512   2.43554   3.46247   3.80878
     Molecular Orbital Coefficients:
                           1         2         3         4         5
                           O         O         O         O         O
     Eigenvalues --   -14.69044 -10.54734  -1.24717  -0.95293  -0.84795
   1 1   C  1S          0.00008   0.99269  -0.11024  -0.16249   0.00003
   2        2S          0.00033   0.04871   0.22147   0.34575  -0.00006
   3        2PX         0.00026   0.00102   0.15074  -0.01351   0.04111
   4        2PY        -0.00004  -0.00014  -0.02096   0.00181   0.14646
   5        2PZ        -0.00003  -0.00011  -0.01556   0.00143   0.19975
   6        3S         -0.00082  -0.00936   0.08454   0.28226  -0.00007
   7        3PX        -0.00039   0.00040  -0.00886  -0.02292   0.01213
   8        3PY         0.00005  -0.00005   0.00122   0.00315   0.04321
   9        3PZ         0.00004  -0.00004   0.00092   0.00240   0.05891
  10        4XX        -0.00007  -0.00887   0.01674  -0.00322   0.00271
  11        4YY         0.00000  -0.00981  -0.01240  -0.00817  -0.00136
  12        4ZZ         0.00000  -0.00970  -0.01049  -0.00086  -0.00136
  13        4XY         0.00001  -0.00013  -0.00432   0.00071   0.00536
  14        4XZ         0.00001  -0.00007  -0.00270   0.00225   0.00750
  15        4YZ         0.00000   0.00024   0.00458   0.01390  -0.00164
  16 2   N  1S          0.99260  -0.00032  -0.19431   0.07492   0.00001
  17        2S          0.03481  -0.00020   0.41408  -0.16721  -0.00003
  18        2PX        -0.00017   0.00041  -0.07578  -0.32504   0.07562
  19        2PY         0.00002  -0.00006   0.01053   0.04520   0.27014
  20        2PZ         0.00002  -0.00004   0.00786   0.03356   0.36931
  21        3S          0.00484   0.00132   0.38591  -0.23044  -0.00005
  22        3PX        -0.00007   0.00035  -0.01582  -0.13404   0.03947
  23        3PY         0.00001  -0.00005   0.00219   0.01866   0.14102
  24        3PZ         0.00001  -0.00004   0.00166   0.01384   0.19280
  25        4XX        -0.00834  -0.00069   0.00897   0.00754   0.00282
  26        4YY        -0.00846  -0.00010  -0.00733  -0.00256  -0.00141
  27        4ZZ        -0.00844  -0.00013  -0.00020  -0.00977  -0.00141
  28        4XY        -0.00002   0.00009  -0.00122  -0.00307   0.00558
  29        4XZ        -0.00001   0.00006   0.00080  -0.00396   0.00780
  30        4YZ         0.00004  -0.00009   0.01371  -0.01299  -0.00171
  31 3   H  1S         -0.00001  -0.00035   0.03448   0.12144   0.09032
  32        2S          0.00001   0.00211  -0.00278   0.02006   0.03409
  33 4   H  1S         -0.00001  -0.00035   0.03446   0.12149  -0.09037
  34        2S          0.00001   0.00211  -0.00279   0.02007  -0.03409
  35 5   H  1S          0.00031   0.00001   0.09743  -0.13588  -0.19363
  36        2S         -0.00058  -0.00004  -0.00981  -0.02027  -0.04904
  37 6   H  1S          0.00031   0.00001   0.09745  -0.13586   0.19360
  38        2S         -0.00058  -0.00004  -0.00981  -0.02026   0.04904
                           6         7         8         9        10
                           O         O         O         V         V
     Eigenvalues --    -0.78949  -0.68236  -0.65318  -0.31943  -0.16791
   1 1   C  1S          0.05293  -0.00002  -0.00005  -0.00010  -0.01687
   2        2S         -0.10208   0.00003   0.00012   0.00023   0.05669
   3        2PX         0.42821   0.07083   0.01591   0.02660  -0.14618
   4        2PY        -0.05928   0.25514   0.26771   0.43383   0.02047
   5        2PZ        -0.04434   0.34324  -0.20377  -0.32429   0.01538
   6        3S         -0.20048   0.00011   0.00017   0.00052   0.23967
   7        3PX         0.09859   0.03533   0.00754   0.02799  -0.48628
   8        3PY        -0.01362   0.12704   0.12705   0.45777   0.06783
   9        3PZ        -0.01022   0.17118  -0.09694  -0.34236   0.05090
  10        4XX         0.01813  -0.00895   0.00247  -0.00179   0.01556
  11        4YY        -0.00976   0.00438  -0.00544   0.00395  -0.00367
  12        4ZZ        -0.01878   0.00457   0.00296  -0.00219  -0.00871
  13        4XY        -0.00638  -0.01757   0.02239  -0.01631  -0.00411
  14        4XZ        -0.00681  -0.02471  -0.01666   0.01231  -0.00419
  15        4YZ        -0.01601   0.00540  -0.00003   0.00000  -0.00871
  16 2   N  1S         -0.01917   0.00002  -0.00001   0.00004  -0.11918
  17        2S          0.04684  -0.00005   0.00001  -0.00013   0.22754
  18        2PX        -0.37908  -0.03966   0.02684  -0.02001   0.17861
  19        2PY         0.05272  -0.13971   0.42503  -0.32227  -0.02479
  20        2PZ         0.03889  -0.19742  -0.31403   0.23975  -0.01823
  21        3S          0.03786  -0.00009   0.00005  -0.00016   1.65279
  22        3PX        -0.16852  -0.02614   0.01764  -0.02299   0.28972
  23        3PY         0.02343  -0.09207   0.27993  -0.36889  -0.04020
  24        3PZ         0.01726  -0.12987  -0.20677   0.27446  -0.02958
  25        4XX        -0.00224  -0.00841  -0.00129  -0.00249  -0.01454
  26        4YY        -0.00442   0.00420   0.00303   0.00564  -0.02102
  27        4ZZ        -0.00853   0.00422  -0.00173  -0.00314  -0.02503
  28        4XY        -0.00119  -0.01675  -0.01248  -0.02323  -0.00188
  29        4XZ        -0.00184  -0.02310   0.00976   0.01771  -0.00233
  30        4YZ        -0.00754   0.00508  -0.00004  -0.00003  -0.00724
  31 3   H  1S         -0.16123   0.23021  -0.00170   0.00009  -0.01601
  32        2S         -0.07594   0.12701  -0.00101   0.00025  -0.36546
  33 4   H  1S         -0.16143  -0.23004   0.00175  -0.00041  -0.01582
  34        2S         -0.07602  -0.12688   0.00106  -0.00070  -0.36423
  35 5   H  1S         -0.09594   0.14369  -0.00110  -0.00026  -0.12820
  36        2S         -0.04468   0.07774  -0.00065  -0.00042  -0.99406
  37 6   H  1S         -0.09608  -0.14365   0.00112   0.00039  -0.12838
  38        2S         -0.04473  -0.07769   0.00069   0.00068  -0.99516
                          11        12        13        14        15
                           V         V         V         V         V
     Eigenvalues --    -0.13534  -0.10175  -0.01441   0.03835   0.27534
   1 1   C  1S         -0.00007  -0.13619   0.00006  -0.06507   0.00007
   2        2S          0.00015   0.27647  -0.00006   0.00724  -0.00112
   3        2PX         0.04309  -0.15800   0.06741   0.18155  -0.04972
   4        2PY         0.15419   0.02157   0.24147  -0.02493  -0.78278
   5        2PZ         0.20931   0.01648   0.32817  -0.01850   0.58540
   6        3S          0.00084   1.98674  -0.00147   2.19105  -0.00073
   7        3PX         0.08174  -0.34302   0.22968   2.36017   0.05539
   8        3PY         0.29224   0.04669   0.82389  -0.32710   0.87787
   9        3PZ         0.39602   0.03590   1.12166  -0.24303  -0.65598
  10        4XX         0.01023  -0.01055   0.00115  -0.05020  -0.00378
  11        4YY        -0.00506   0.00077  -0.00055   0.01975   0.00839
  12        4ZZ        -0.00518  -0.00548  -0.00059   0.02775  -0.00473
  13        4XY         0.02025   0.00054   0.00219   0.01297  -0.03479
  14        4XZ         0.02818  -0.00112   0.00297   0.01141   0.02642
  15        4YZ        -0.00618  -0.01220  -0.00067   0.01285   0.00003
  16 2   N  1S          0.00012   0.05564  -0.00002   0.06319  -0.00009
  17        2S         -0.00022  -0.11182   0.00004  -0.06517   0.00003
  18        2PX         0.05591   0.00242  -0.05041   0.38604  -0.01245
  19        2PY         0.20017  -0.00036  -0.17859  -0.05380  -0.20048
  20        2PZ         0.27434  -0.00054  -0.24409  -0.03995   0.14861
  21        3S         -0.00164  -0.70004   0.00040  -2.00585   0.00022
  22        3PX         0.10331   0.13917  -0.14792   1.65136   0.00197
  23        3PY         0.36912  -0.01930  -0.52491  -0.23000   0.05888
  24        3PZ         0.50623  -0.01501  -0.71657  -0.17095  -0.04288
  25        4XX        -0.01080   0.01942  -0.00757   0.01959   0.00560
  26        4YY         0.00541   0.00519   0.00378   0.02232  -0.01324
  27        4ZZ         0.00545   0.00060   0.00377   0.01320   0.00748
  28        4XY        -0.02146  -0.00320  -0.01500  -0.00140   0.05486
  29        4XZ        -0.02980  -0.00346  -0.02077  -0.00317  -0.04157
  30        4YZ         0.00654  -0.00824   0.00457  -0.01686   0.00006
  31 3   H  1S         -0.09536  -0.12609  -0.06153   0.04120  -0.00002
  32        2S         -0.72205  -1.27055  -1.47807   0.29247   0.00000
  33 4   H  1S          0.09519  -0.12621   0.06143   0.04104   0.00022
  34        2S          0.72099  -1.27183   1.47818   0.29606   0.00081
  35 5   H  1S          0.14503   0.04544  -0.01148  -0.06875   0.00006
  36        2S          1.01071   0.32235  -0.93185  -0.59808  -0.00029
  37 6   H  1S         -0.14475   0.04565   0.01160  -0.06878  -0.00002
  38        2S         -1.00870   0.32395   0.93323  -0.59696   0.00083
                          16        17        18        19        20
                           V         V         V         V         V
     Eigenvalues --     0.27826   0.31836   0.38444   0.44169   0.45317
   1 1   C  1S         -0.02362   0.00006  -0.06203   0.00011   0.06153
   2        2S          0.45069   0.00070  -0.81286  -0.00087  -0.21625
   3        2PX         0.92184  -0.09215   0.10150   0.01424  -0.22328
   4        2PY        -0.12968  -0.32722  -0.01465   0.23972   0.03069
   5        2PZ        -0.09471  -0.44672  -0.01103  -0.17882   0.02360
   6        3S          0.46437  -0.00110   1.58207   0.00370   1.16404
   7        3PX        -0.61879   0.22607  -0.53561  -0.03491   0.73969
   8        3PY         0.08774   0.80010   0.07524  -0.58622  -0.10161
   9        3PZ         0.06349   1.08967   0.05725   0.43669  -0.07796
  10        4XX        -0.00629   0.03617  -0.10337  -0.00268   0.14704
[...]
  30        4YZ        -0.00002   0.00042  -0.00012  -0.00011   0.00088
  31 3   H  1S          0.00197   0.00206  -0.00711  -0.00957   0.00225
  32        2S          0.00157   0.00188  -0.00379  -0.00524   0.00172
  33 4   H  1S         -0.00137  -0.00133   0.00621   0.00894  -0.00181
  34        2S         -0.00035  -0.00007   0.00391   0.00547  -0.00063
  35 5   H  1S          0.00186   0.00601  -0.00612  -0.00809   0.00977
  36        2S          0.00144   0.00197  -0.00288  -0.00406   0.00189
  37 6   H  1S         -0.00163   0.00249   0.00777   0.01126   0.00553
  38        2S         -0.00013   0.00038   0.00339   0.00468  -0.00003
                          31        32        33        34        35
  31 3   H  1S          0.20619
  32        2S          0.09381   0.04695
  33 4   H  1S         -0.03830  -0.03540   0.20619
  34        2S         -0.03538  -0.02218   0.09376   0.04691
  35 5   H  1S          0.03584   0.03188  -0.02644  -0.01468   0.19060
  36        2S          0.03575   0.02243  -0.01808  -0.01035   0.05350
  37 6   H  1S         -0.02646  -0.01469   0.03583   0.03186  -0.04191
  38        2S         -0.01809  -0.01036   0.03572   0.02242  -0.02914
                          36        37        38
  36        2S          0.02191
  37 6   H  1S         -0.02914   0.19061
  38        2S         -0.01188   0.05350   0.02190
    Full Mulliken population analysis:
                           1         2         3         4         5
   1 1   C  1S          2.05360
   2        2S         -0.01649   0.36278
   3        2PX         0.00000   0.00000   0.42647
   4        2PY         0.00000   0.00000   0.00000   0.32434
   5        2PZ         0.00000   0.00000   0.00000   0.00000   0.40289
   6        3S         -0.02767   0.22147   0.00000   0.00000   0.00000
   7        3PX         0.00000   0.00000   0.05049   0.00000   0.00000
   8        3PY         0.00000   0.00000   0.00000   0.08380   0.00000
   9        3PZ         0.00000   0.00000   0.00000   0.00000   0.10337
  10        4XX        -0.00145   0.00044   0.00000   0.00000   0.00000
  11        4YY        -0.00120  -0.00718   0.00000   0.00000   0.00000
  12        4ZZ        -0.00148  -0.00167   0.00000   0.00000   0.00000
  13        4XY         0.00000   0.00000   0.00000   0.00000   0.00000
  14        4XZ         0.00000   0.00000   0.00000   0.00000   0.00000
  15        4YZ         0.00000   0.00000   0.00000   0.00000   0.00000
  16 2   N  1S          0.00000  -0.00059  -0.00320  -0.00006  -0.00003
  17        2S         -0.00038   0.01050   0.04581   0.00088   0.00049
  18        2PX        -0.00223   0.04153   0.09887   0.00344   0.00110
  19        2PY        -0.00004   0.00080   0.00343   0.02082   0.00093
  20        2PZ        -0.00002   0.00044   0.00110   0.00093   0.01287
  21        3S         -0.00024   0.00147   0.04488   0.00087   0.00048
  22        3PX        -0.00414   0.03703   0.03002   0.00182   0.00028
  23        3PY        -0.00008   0.00072   0.00181   0.03605   0.00083
  24        3PZ        -0.00004   0.00039   0.00028   0.00083   0.01828
  25        4XX        -0.00043   0.00352  -0.00018   0.00039   0.00029
  26        4YY         0.00001  -0.00049  -0.00093   0.00004  -0.00003
  27        4ZZ         0.00000  -0.00059  -0.00113  -0.00004   0.00003
  28        4XY        -0.00002   0.00015   0.00033   0.00265  -0.00005
  29        4XZ        -0.00001   0.00009   0.00024  -0.00005   0.00340
  30        4YZ         0.00000  -0.00001  -0.00002   0.00005   0.00009
  31 3   H  1S         -0.00214   0.03634   0.01168   0.03434   0.05727
  32        2S         -0.00090   0.01353   0.00420   0.01275   0.02130
  33 4   H  1S         -0.00215   0.03637   0.04002   0.02035   0.04294
  34        2S         -0.00090   0.01353   0.01462   0.00760   0.01602
  35 5   H  1S          0.00000  -0.00041  -0.00098  -0.00023  -0.00031
  36        2S          0.00007  -0.00125  -0.00368  -0.00153  -0.00222
  37 6   H  1S          0.00000  -0.00041  -0.00138  -0.00003  -0.00011
  38        2S          0.00007  -0.00125  -0.00610  -0.00033  -0.00100
                           6         7         8         9        10
   6        3S          0.25420
   7        3PX         0.00000   0.02355
   8        3PY         0.00000   0.00000   0.06869
   9        3PZ         0.00000   0.00000   0.00000   0.08456
  10        4XX        -0.00384   0.00000   0.00000   0.00000   0.00158
  11        4YY        -0.00164   0.00000   0.00000   0.00000  -0.00022
  12        4ZZ         0.00344   0.00000   0.00000   0.00000  -0.00031
  13        4XY         0.00000   0.00000   0.00000   0.00000   0.00000
  14        4XZ         0.00000   0.00000   0.00000   0.00000   0.00000
  15        4YZ         0.00000   0.00000   0.00000   0.00000   0.00000
  16 2   N  1S          0.00087  -0.00048  -0.00001  -0.00001  -0.00042
  17        2S         -0.01367   0.00478   0.00009   0.00005   0.00552
  18        2PX         0.00824   0.00669   0.00048  -0.00012   0.00484
  19        2PY         0.00016   0.00047   0.01745   0.00043   0.00064
  20        2PZ         0.00009  -0.00012   0.00043   0.00676   0.00032
  21        3S         -0.04579   0.00697   0.00013   0.00008   0.00596
  22        3PX         0.00599   0.00103   0.00042  -0.00031   0.00213
  23        3PY         0.00012   0.00041   0.03306   0.00061   0.00042
  24        3PZ         0.00006  -0.00031   0.00060   0.01015   0.00020
  25        4XX         0.00249  -0.00061   0.00017   0.00014   0.00016
  26        4YY        -0.00025  -0.00014  -0.00007  -0.00004  -0.00009
  27        4ZZ        -0.00059  -0.00045  -0.00004  -0.00005  -0.00006
  28        4XY         0.00003   0.00002   0.00111  -0.00001  -0.00003
  29        4XZ         0.00002   0.00001  -0.00001   0.00143  -0.00005
  30        4YZ         0.00000   0.00000   0.00002   0.00004   0.00000
  31 3   H  1S          0.05256   0.00349   0.02106   0.03580  -0.00145
  32        2S          0.02913   0.00122   0.01244   0.02130  -0.00185
  33 4   H  1S          0.05258   0.01834   0.01373   0.02826  -0.00047
  34        2S          0.02912   0.00941   0.00838   0.01713  -0.00036
  35 5   H  1S         -0.00203  -0.00173  -0.00189  -0.00287  -0.00006
  36        2S          0.00146  -0.00129  -0.00284  -0.00437  -0.00047
  37 6   H  1S         -0.00203  -0.00448  -0.00052  -0.00148   0.00011
  38        2S          0.00145  -0.00532  -0.00084  -0.00234  -0.00002
                          11        12        13        14        15
  11        4YY         0.00093
  12        4ZZ         0.00028   0.00118
  13        4XY         0.00000   0.00000   0.00180
  14        4XZ         0.00000   0.00000   0.00000   0.00201
  15        4YZ         0.00000   0.00000   0.00000   0.00000   0.00101
  16 2   N  1S          0.00001   0.00001  -0.00003  -0.00002   0.00000
  17        2S         -0.00061  -0.00071   0.00028   0.00017  -0.00002
  18        2PX        -0.00145  -0.00162   0.00077   0.00043  -0.00002
  19        2PY         0.00012  -0.00002   0.00416   0.00005   0.00005
  20        2PZ        -0.00001   0.00007   0.00004   0.00421   0.00008
  21        3S         -0.00167  -0.00231   0.00013   0.00008  -0.00001
  22        3PX        -0.00235  -0.00291   0.00011   0.00006  -0.00001
  23        3PY        -0.00015  -0.00003   0.00328   0.00002   0.00003
  24        3PZ         0.00000  -0.00008   0.00002   0.00314   0.00006
  25        4XX        -0.00007  -0.00004  -0.00003  -0.00005   0.00001
  26        4YY         0.00003   0.00001   0.00000   0.00001   0.00000
  27        4ZZ         0.00001   0.00004   0.00001   0.00000   0.00000
  28        4XY         0.00000   0.00001  -0.00003   0.00003  -0.00001
  29        4XZ         0.00001   0.00000   0.00003  -0.00030  -0.00002
  30        4YZ         0.00000   0.00000  -0.00001  -0.00002   0.00001
  31 3   H  1S          0.00049   0.00213   0.00062   0.00112   0.00277
  32        2S          0.00084   0.00154   0.00009   0.00016   0.00025
  33 4   H  1S         -0.00027   0.00085   0.00149   0.00297   0.00110
  34        2S          0.00006   0.00068   0.00020   0.00039   0.00007
  35 5   H  1S          0.00002   0.00003   0.00009   0.00015   0.00002
  36        2S          0.00022   0.00028   0.00010   0.00017   0.00003
  37 6   H  1S          0.00000   0.00000   0.00004   0.00010   0.00000
  38        2S          0.00006   0.00010   0.00006   0.00015   0.00000
                          16        17        18        19        20
  16 2   N  1S          2.05800
  17        2S         -0.02637   0.40565
  18        2PX         0.00000   0.00000   0.52622
  19        2PY         0.00000   0.00000   0.00000   0.55617
  20        2PZ         0.00000   0.00000   0.00000   0.00000   0.55337
  21        3S         -0.03031   0.31062   0.00000   0.00000   0.00000
  22        3PX         0.00000   0.00000   0.11751   0.00000   0.00000
  23        3PY         0.00000   0.00000   0.00000   0.17868   0.00000
  24        3PZ         0.00000   0.00000   0.00000   0.00000   0.16921
  25        4XX        -0.00095   0.00262   0.00000   0.00000   0.00000
  26        4YY        -0.00071  -0.00395   0.00000   0.00000   0.00000
  27        4ZZ        -0.00090   0.00109   0.00000   0.00000   0.00000
  28        4XY         0.00000   0.00000   0.00000   0.00000   0.00000
  29        4XZ         0.00000   0.00000   0.00000   0.00000   0.00000
  30        4YZ         0.00000   0.00000   0.00000   0.00000   0.00000
  31 3   H  1S          0.00000  -0.00013  -0.00027  -0.00009  -0.00012
  32        2S          0.00009  -0.00154  -0.00272  -0.00080  -0.00113
  33 4   H  1S          0.00000  -0.00013  -0.00041  -0.00002  -0.00005
  34        2S          0.00009  -0.00154  -0.00404  -0.00015  -0.00046
  35 5   H  1S         -0.00180   0.02989   0.01298   0.03025   0.05021
  36        2S          0.00010  -0.00235   0.00260   0.00613   0.01017
  37 6   H  1S         -0.00180   0.02989   0.03967   0.01698   0.03680
  38        2S          0.00010  -0.00235   0.00799   0.00345   0.00745
                          21        22        23        24        25
  21        3S          0.40698
  22        3PX         0.00000   0.09834
  23        3PY         0.00000   0.00000   0.21525
  24        3PZ         0.00000   0.00000   0.00000   0.19457
  25        4XX         0.00214   0.00000   0.00000   0.00000   0.00059
  26        4YY        -0.00328   0.00000   0.00000   0.00000  -0.00003
  27        4ZZ         0.00243   0.00000   0.00000   0.00000  -0.00002
  28        4XY         0.00000   0.00000   0.00000   0.00000   0.00000
  29        4XZ         0.00000   0.00000   0.00000   0.00000   0.00000
  30        4YZ         0.00000   0.00000   0.00000   0.00000   0.00000
  31 3   H  1S         -0.00269  -0.00221  -0.00143  -0.00212   0.00000
  32        2S         -0.00428  -0.00502  -0.00258  -0.00378  -0.00017
  33 4   H  1S         -0.00269  -0.00430  -0.00039  -0.00107   0.00014
  34        2S         -0.00428  -0.00888  -0.00066  -0.00183   0.00036
  35 5   H  1S          0.05266   0.00906   0.02846   0.04771  -0.00066
  36        2S         -0.00114   0.00265   0.00959   0.01610  -0.00072
  37 6   H  1S          0.05266   0.03229   0.01691   0.03604   0.00109
  38        2S         -0.00113   0.01022   0.00582   0.01229   0.00054
                          26        27        28        29        30
  26        4YY         0.00036
  27        4ZZ         0.00010   0.00052
  28        4XY         0.00000   0.00000   0.00096
  29        4XZ         0.00000   0.00000   0.00000   0.00142
  30        4YZ         0.00000   0.00000   0.00000   0.00000   0.00088
  31 3   H  1S          0.00001   0.00001   0.00008   0.00013   0.00002
  32        2S          0.00015   0.00018   0.00014   0.00022   0.00004
  33 4   H  1S          0.00000  -0.00001   0.00003   0.00009   0.00000
  34        2S         -0.00003  -0.00001   0.00006   0.00017   0.00000
  35 5   H  1S          0.00048   0.00202   0.00084   0.00144   0.00257
  36        2S          0.00058   0.00082   0.00008   0.00015   0.00010
  37 6   H  1S         -0.00034   0.00071   0.00137   0.00294   0.00092
  38        2S         -0.00005   0.00015   0.00012   0.00025   0.00000
                          31        32        33        34        35
  31 3   H  1S          0.20619
  32        2S          0.06175   0.04695
  33 4   H  1S         -0.00044  -0.00438   0.20619
  34        2S         -0.00438  -0.00793   0.06172   0.04691
  35 5   H  1S          0.00000   0.00034  -0.00003  -0.00071   0.19060
  36        2S          0.00038   0.00175  -0.00088  -0.00208   0.03522
  37 6   H  1S         -0.00003  -0.00071   0.00000   0.00034  -0.00093
  38        2S         -0.00088  -0.00208   0.00038   0.00175  -0.00467
                          36        37        38
  36        2S          0.02191
  37 6   H  1S         -0.00467   0.19061
  38        2S         -0.00499   0.03522   0.02190
     Gross orbital populations:
                           1
   1 1   C  1S          1.99174
   2        2S          0.75078
   3        2PX         0.75665
   4        2PY         0.54968
   5        2PZ         0.67910
   6        3S          0.56598
   7        3PX         0.11196
   8        3PY         0.25586
   9        3PZ         0.29852
  10        4XX         0.01121
  11        4YY        -0.01375
  12        4ZZ        -0.00055
  13        4XY         0.01319
  14        4XZ         0.01502
  15        4YZ         0.00539
  16 2   N  1S          1.99160
  17        2S          0.79461
  18        2PX         0.86047
  19        2PY         0.84005
  20        2PZ         0.85265
  21        3S          0.78872
  22        3PX         0.31883
  23        3PY         0.52674
  24        3PZ         0.50069
  25        4XX         0.01070
  26        4YY        -0.00865
  27        4ZZ         0.00425
  28        4XY         0.00787
  29        4XZ         0.01159
  30        4YZ         0.00466
  31 3   H  1S          0.50984
  32        2S          0.19049
  33 4   H  1S          0.50987
  34        2S          0.19039
  35 5   H  1S          0.47573
  36        2S          0.07620
  37 6   H  1S          0.47575
  38        2S          0.07618
          Condensed to atoms (all electrons):
               1          2          3          4          5          6
     1  C    4.809882   0.487765   0.372057   0.372057  -0.025485  -0.025498
     2  N    0.487765   6.455068  -0.030011  -0.029979   0.310960   0.310986
     3  H    0.372057  -0.030011   0.376647  -0.017129   0.002468  -0.003706
     4  H    0.372057  -0.029979  -0.017129   0.376545  -0.003698   0.002466
     5  H   -0.025485   0.310960   0.002468  -0.003698   0.282944  -0.015265
     6  H   -0.025498   0.310986  -0.003706   0.002466  -0.015265   0.282943
 Mulliken charges:
               1
     1  C    0.009223
     2  N   -0.504788
     3  H    0.299674
     4  H    0.299739
     5  H    0.448076
     6  H    0.448075
 Sum of Mulliken charges =   1.00000
 Mulliken charges with hydrogens summed into heavy atoms:
               1
     1  C    0.608636
     2  N    0.391364
 Electronic spatial extent (au):  <R**2>=            255.1085
 Charge=              1.0000 electrons
 Dipole moment (field-independent basis, Debye):
    X=             -8.1272    Y=              1.0683    Z=              0.6974  Tot=              8.2268
 Quadrupole moment (field-independent basis, Debye-Ang):
   XX=              8.9923   YY=            -10.0699   ZZ=             -8.7906
   XY=             -2.3375   XZ=             -1.2766   YZ=              2.5954
 Traceless Quadrupole moment (field-independent basis, Debye-Ang):
   XX=             12.2817   YY=             -6.7805   ZZ=             -5.5012
   XY=             -2.3375   XZ=             -1.2766   YZ=              2.5954
 Octapole moment (field-independent basis, Debye-Ang**2):
  XXX=              5.3899  YYY=             -7.4774  ZZZ=             -4.4060  XYY=             18.3332
  XXY=              3.6736  XXZ=              1.6477  XZZ=             16.6252  YZZ=             -1.5766
  YYZ=             -0.6387  XYZ=             -4.1283
 Hexadecapole moment (field-independent basis, Debye-Ang**3):
 XXXX=           -112.1246 YYYY=            -16.9955 ZZZZ=            -15.5969 XXXY=              0.1801
 XXXZ=              3.0548 YYYX=             15.0901 YYYZ=             -2.1936 ZZZX=              8.7442
 ZZZY=             -1.4603 XXYY=            -41.9754 XXZZ=            -38.0106 YYZZ=             -4.1738
 XXYZ=              8.6997 YYXZ=              0.9967 ZZXY=              2.9676
 N-N= 3.861072231260D+01 E-N=-2.924891037798D+02  KE= 9.399119954910D+01
 Orbital energies and kinetic energies (alpha):
                                 1                 2
   1         O               -14.690443         21.955301
   2         O               -10.547338         15.880296
   3         O                -1.247169          2.016077
   4         O                -0.952929          1.642747
   5         O                -0.847951          1.310900
   6         O                -0.789491          1.470714
   7         O                -0.682361          1.224594
   8         O                -0.653183          1.494971
   9         V                -0.319431          1.587517
  10         V                -0.167912          1.123931
  11         V                -0.135339          1.044898
  12         V                -0.101748          1.166300
  13         V                -0.014413          1.106151
  14         V                 0.038346          1.401030
  15         V                 0.275344          1.979335
  16         V                 0.278261          2.194580
  17         V                 0.318363          1.662047
  18         V                 0.384445          1.609912
  19         V                 0.441694          2.640642
  20         V                 0.453172          2.332351
  21         V                 0.557569          2.387214
  22         V                 0.617192          3.187866
  23         V                 0.624145          2.941518
  24         V                 0.671024          2.466866
  25         V                 0.938895          2.278936
  26         V                 1.087474          2.500804
  27         V                 1.138719          2.712534
  28         V                 1.184711          2.635518
  29         V                 1.508698          2.999686
  30         V                 1.581766          3.117502
  31         V                 1.731804          3.501391
  32         V                 1.873240          3.711695
  33         V                 2.047332          3.723839
  34         V                 2.106637          3.675818
  35         V                 2.385116          4.883427
  36         V                 2.435544          4.243176
  37         V                 3.462466          9.904729
  38         V                 3.808782          9.918525
 Total kinetic energy from orbitals= 9.399119954910D+01

 Test job not archived.
 1\1\GINC-EAM\SP\RB3LYP TD-FC\Gen\C1H4N1(1+)\DULIKAI\30-Apr-2014\0\\# t
 d(singlet, root=0, nstates=2) b3lyp/ChkBasis scf=(tight,maxcycle=10000
 ) iop(9/40=20) nosymm pop=full geom=AllCheck Guess=Read\\[0] [0]\\1,1\
 C,-2.4479098,0.3277576,0.2230023\N,-1.1874715,0.1525632,0.0927697\H,-2
 .8246486,0.953119,1.0294774\H,-3.1339103,-0.1507032,-0.4723661\H,-0.79
 61654,-0.4269922,-0.6533647\H,-0.5130939,0.5836774,0.729167\\Version=E
 M64L-G09RevD.01\HF=-94.9741087\RMSD=2.528e-10\PG=C01 [X(C1H4N1)]\\@


 DIATOMIC MOLECULES ARE PECULIAR BECAUSE THEY ONLY HAVE TWO ENDS,
 AND THESE ENDS ARE VERY CLOSE TOGETHER.
 KLAUS RUEDENBERG, REV.MOD.PHYS. PG 176, 32, (1960)
 Job cpu time:       0 days  0 hours  0 minutes 11.6 seconds.
 File lengths (MBytes):  RWF=      5 Int=      0 D2E=      0 Chk=      1 Scr=      1
 Normal termination of Gaussian 09 at Wed Apr 30 11:42:54 2014.
