 Entering Gaussian System, Link 0=g09
 Input=gaussian.gjf
 Output=gaussian.log
 Initial command:
 /opt/g09_D01_em64t/g09/l1.exe "/tmp/Gau-18538.inp" -scrdir="/tmp/"
 Entering Link 1 = /opt/g09_D01_em64t/g09/l1.exe PID=     18539.
  
 Copyright (c) 1988,1990,1992,1993,1995,1998,2003,2009,2013,
            Gaussian, Inc.  All Rights Reserved.
  
 This is part of the Gaussian(R) 09 program.  It is based on
 the Gaussian(R) 03 system (copyright 2003, Gaussian, Inc.),
 the Gaussian(R) 98 system (copyright 1998, Gaussian, Inc.),
 the Gaussian(R) 94 system (copyright 1995, Gaussian, Inc.),
 the Gaussian 92(TM) system (copyright 1992, Gaussian, Inc.),
 the Gaussian 90(TM) system (copyright 1990, Gaussian, Inc.),
 the Gaussian 88(TM) system (copyright 1988, Gaussian, Inc.),
 the Gaussian 86(TM) system (copyright 1986, Carnegie Mellon
 University), and the Gaussian 82(TM) system (copyright 1983,
 Carnegie Mellon University). Gaussian is a federally registered
 trademark of Gaussian, Inc.
  
 This software contains proprietary and confidential information,
 including trade secrets, belonging to Gaussian, Inc.
  
 This software is provided under written license and may be
 used, copied, transmitted, or stored only in accord with that
 written license.
  
 The following legend is applicable only to US Government
 contracts under FAR:
  
                    RESTRICTED RIGHTS LEGEND
  
 Use, reproduction and disclosure by the US Government is
 subject to restrictions as set forth in subparagraphs (a)
 and (c) of the Commercial Computer Software - Restricted
 Rights clause in FAR 52.227-19.
  
 Gaussian, Inc.
 340 Quinnipiac St., Bldg. 40, Wallingford CT 06492
  
  
 ---------------------------------------------------------------
 Warning -- This program may not be used in any manner that
 competes with the business of Gaussian, Inc. or will provide
 assistance to any competitor of Gaussian, Inc.  The licensee
 of this program is prohibited from giving any competitor of
 Gaussian, Inc. access to this program.  By using this program,
 the user acknowledges that Gaussian, Inc. is engaged in the
 business of creating and licensing software in the field of
 computational chemistry and represents and warrants to the
 licensee that it is not a competitor of Gaussian, Inc. and that
 it will not use this program in any manner prohibited above.
 ---------------------------------------------------------------
  

 Cite this work as:
 Gaussian 09, Revision D.01,
 M. J. Frisch, G. W. Trucks, H. B. Schlegel, G. E. Scuseria, 
 M. A. Robb, J. R. Cheeseman, G. Scalmani, V. Barone, B. Mennucci, 
 G. A. Petersson, H. Nakatsuji, M. Caricato, X. Li, H. P. Hratchian, 
 A. F. Izmaylov, J. Bloino, G. Zheng, J. L. Sonnenberg, M. Hada, 
 M. Ehara, K. Toyota, R. Fukuda, J. Hasegawa, M. Ishida, T. Nakajima, 
 Y. Honda, O. Kitao, H. Nakai, T. Vreven, J. A. Montgomery, Jr., 
 J. E. Peralta, F. Ogliaro, M. Bearpark, J. J. Heyd, E. Brothers, 
 K. N. Kudin, V. N. Staroverov, T. Keith, R. Kobayashi, J. Normand, 
 K. Raghavachari, A. Rendell, J. C. Burant, S. S. Iyengar, J. Tomasi, 
 M. Cossi, N. Rega, J. M. Millam, M. Klene, J. E. Knox, J. B. Cross, 
 V. Bakken, C. Adamo, J. Jaramillo, R. Gomperts, R. E. Stratmann, 
 O. Yazyev, A. J. Austin, R. Cammi, C. Pomelli, J. W. Ochterski, 
 R. L. Martin, K. Morokuma, V. G. Zakrzewski, G. A. Voth, 
 P. Salvador, J. J. Dannenberg, S. Dapprich, A. D. Daniels, 
 O. Farkas, J. B. Foresman, J. V. Ortiz, J. Cioslowski, 
 and D. J. Fox, Gaussian, Inc., Wallingford CT, 2013.
 
 ******************************************
 Gaussian 09:  EM64L-G09RevD.01 24-Apr-2013
                25-Dec-2014 
 ******************************************
 %nprocshared=1
 Will use up to    1 processors via shared memory.
 %mem=1GB
 %chk=gaussian.chk
 ----------------------------------------------------------------------
 #p LC-wpbe/6-31g* gfinput Iop(5/33=3,3/33=1,6/7=3) gfprint iop(6/7=3) 
 pop=full nosymm
 ----------------------------------------------------------------------
 1/38=1/1;
 2/12=2,15=1,17=6,18=5,40=1/2;
 3/5=1,6=6,7=1,11=2,16=1,24=110,25=1,30=1,33=1,74=-41/1,2,3;
 4//1;
 5/5=2,33=3,38=5/2;
 6/7=3,28=1/1;
 99/5=1,9=1/99;
 Leave Link    1 at Thu Dec 25 14:11:23 2014, MaxMem=   134217728 cpu:         0.0
 (Enter /opt/g09_D01_em64t/g09/l101.exe)
 ----
 dscf
 ----
 Symbolic Z-matrix:
 Charge =  0 Multiplicity = 1
 O                     0.26034  -0.73078   1.79686 
 H                     1.22034  -0.73078   1.79686 
 H                    -0.06012   0.17415   1.79686 
 
 NAtoms=      3 NQM=        3 NQMF=       0 NMMI=      0 NMMIF=      0
                NMic=       0 NMicF=      0.
                    Isotopes and Nuclear Properties:
 (Nuclear quadrupole moments (NQMom) in fm**2, nuclear magnetic moments (NMagM)
  in nuclear magnetons)

  Atom         1           2           3
 IAtWgt=          16           1           1
 AtmWgt=  15.9949146   1.0078250   1.0078250
 NucSpn=           0           1           1
 AtZEff=   0.0000000   0.0000000   0.0000000
 NQMom=    0.0000000   0.0000000   0.0000000
 NMagM=    0.0000000   2.7928460   2.7928460
 AtZNuc=   8.0000000   1.0000000   1.0000000
 Leave Link  101 at Thu Dec 25 14:11:23 2014, MaxMem=   134217728 cpu:         0.1
 (Enter /opt/g09_D01_em64t/g09/l202.exe)
                          Input orientation:                          
 ---------------------------------------------------------------------
 Center     Atomic      Atomic             Coordinates (Angstroms)
 Number     Number       Type             X           Y           Z
 ---------------------------------------------------------------------
      1          8           0        0.260338   -0.730781    1.796863
      2          1           0        1.220338   -0.730781    1.796863
      3          1           0       -0.060117    0.174155    1.796863
 ---------------------------------------------------------------------
                    Distance matrix (angstroms):
                    1          2          3
     1  O    0.000000
     2  H    0.960000   0.000000
     3  H    0.960000   1.567952   0.000000
 Symmetry turned off by external request.
 Stoichiometry    H2O
 Framework group  C2V[C2(O),SGV(H2)]
 Deg. of freedom     2
 Full point group                 C2V     NOp   4
 Rotational constants (GHZ):    919.6759649    407.9403258    282.5913748
 Leave Link  202 at Thu Dec 25 14:11:23 2014, MaxMem=   134217728 cpu:         0.0
 (Enter /opt/g09_D01_em64t/g09/l301.exe)
 Standard basis: 6-31G(d) (6D, 7F)
                         Coordinates in L301:                         
 ---------------------------------------------------------------------
 Center     Atomic      Atomic             Coordinates (Angstroms)
 Number     Number       Type             X           Y           Z
 ---------------------------------------------------------------------
      1          8           0        0.260338   -0.730781    1.796863
      2          1           0        1.220338   -0.730781    1.796863
      3          1           0       -0.060117    0.174155    1.796863
 ---------------------------------------------------------------------
 FixB: optimizing general contractions.
 Ernie: Thresh=  0.10000D-02 Tol=  0.10000D-05 Strict=F.
 IA=     1 ShT= 0 ShC= 0 NL=   1 NS=   0.
 IA=     1 L=0 SC=0 ISt=    0 NBk=    0 NP=    0 IndPr=    0.
 IA=     1 ShT= 1 ShC= 0 NL=   2 NS=   1.
 IA=     1 L=1 SC=0 ISt=    0 NBk=    0 NP=    0 IndPr=    0.
 IA=     1 ShT= 2 ShC= 2 NL=   1 NS=   1.
 IA=     1 L=2 SC=2 ISt=    0 NBk=    0 NP=    0 IndPr=    0.
 IA=     2 ShT= 0 ShC= 0 NL=   2 NS=   1.
 IA=     2 L=0 SC=0 ISt=    0 NBk=    0 NP=    0 IndPr=    0.
 IA=     3 ShT= 0 ShC= 0 NL=   2 NS=   1.
 IA=     3 L=0 SC=0 ISt=    0 NBk=    0 NP=    0 IndPr=    0.
 AO basis set in the form of general basis input (Overlap normalization):
      1 0
 S   6 1.00       0.000000000000
      0.5484671660D+04  0.1831074430D-02
      0.8252349460D+03  0.1395017220D-01
      0.1880469580D+03  0.6844507810D-01
      0.5296450000D+02  0.2327143360D+00
      0.1689757040D+02  0.4701928980D+00
      0.5799635340D+01  0.3585208530D+00
 SP   3 1.00       0.000000000000
      0.1553961625D+02 -0.1107775495D+00  0.7087426823D-01
      0.3599933586D+01 -0.1480262627D+00  0.3397528391D+00
      0.1013761750D+01  0.1130767015D+01  0.7271585773D+00
 SP   1 1.00       0.000000000000
      0.2700058226D+00  0.1000000000D+01  0.1000000000D+01
 D   1 1.00       0.000000000000
      0.8000000000D+00  0.1000000000D+01
 ****
      2 0
 S   3 1.00       0.000000000000
      0.1873113696D+02  0.3349460434D-01
      0.2825394365D+01  0.2347269535D+00
      0.6401216923D+00  0.8137573261D+00
 S   1 1.00       0.000000000000
      0.1612777588D+00  0.1000000000D+01
 ****
      3 0
 S   3 1.00       0.000000000000
      0.1873113696D+02  0.3349460434D-01
      0.2825394365D+01  0.2347269535D+00
      0.6401216923D+00  0.8137573261D+00
 S   1 1.00       0.000000000000
      0.1612777588D+00  0.1000000000D+01
 ****

 AO basis set (Overlap normalization):
 Atom O1       Shell     1 S   6     bf    1 -     1          0.491967257422         -1.380975820835          3.395579894281
      0.5484671660D+04  0.1831074430D-02
      0.8252349460D+03  0.1395017220D-01
      0.1880469580D+03  0.6844507810D-01
      0.5296450000D+02  0.2327143360D+00
      0.1689757040D+02  0.4701928980D+00
      0.5799635340D+01  0.3585208530D+00
 Atom O1       Shell     2 SP   3    bf    2 -     5          0.491967257422         -1.380975820835          3.395579894281
      0.1553961625D+02 -0.1107775495D+00  0.7087426823D-01
      0.3599933586D+01 -0.1480262627D+00  0.3397528391D+00
      0.1013761750D+01  0.1130767015D+01  0.7271585773D+00
 Atom O1       Shell     3 SP   1    bf    6 -     9          0.491967257422         -1.380975820835          3.395579894281
      0.2700058226D+00  0.1000000000D+01  0.1000000000D+01
 Atom O1       Shell     4 D   1     bf   10 -    15          0.491967257422         -1.380975820835          3.395579894281
      0.8000000000D+00  0.1000000000D+01
 Atom H2       Shell     5 S   3     bf   16 -    16          2.306104344992         -1.380975820835          3.395579894281
      0.1873113696D+02  0.3349460434D-01
      0.2825394365D+01  0.2347269535D+00
      0.6401216923D+00  0.8137573261D+00
 Atom H2       Shell     6 S   1     bf   17 -    17          2.306104344992         -1.380975820835          3.395579894281
      0.1612777588D+00  0.1000000000D+01
 Atom H3       Shell     7 S   3     bf   18 -    18         -0.113604155705          0.329105065700          3.395579894281
      0.1873113696D+02  0.3349460434D-01
      0.2825394365D+01  0.2347269535D+00
      0.6401216923D+00  0.8137573261D+00
 Atom H3       Shell     8 S   1     bf   19 -    19         -0.113604155705          0.329105065700          3.395579894281
      0.1612777588D+00  0.1000000000D+01
 LdAtmC:  AtmChg=     8.000000     1.000000     1.000000
 AtZEff=     -5.6000000     -1.0000000     -1.0000000
    19 basis functions,    36 primitive gaussians,    19 cartesian basis functions
     5 alpha electrons        5 beta electrons
       nuclear repulsion energy         9.1571159831 Hartrees.
 IS=     1 IAt=     1 ISR=     1 T=0 IP=      1 IndIP=      1 IndIPD=      0 C=  8.317237D-01  0.000000D+00                             NZ=T
 IS=     1 IAt=     1 ISR=     1 T=0 IP=      2 IndIP=      2 IndIPD=      1 C=  1.530816D+00  0.000000D+00                             NZ=T
 IS=     1 IAt=     1 ISR=     1 T=0 IP=      3 IndIP=      3 IndIPD=      2 C=  2.477149D+00  0.000000D+00                             NZ=T
 IS=     1 IAt=     1 ISR=     1 T=0 IP=      4 IndIP=      4 IndIPD=      3 C=  3.256281D+00  0.000000D+00                             NZ=T
 IS=     1 IAt=     1 ISR=     1 T=0 IP=      5 IndIP=      5 IndIPD=      4 C=  2.792893D+00  0.000000D+00                             NZ=T
 IS=     1 IAt=     1 ISR=     1 T=0 IP=      6 IndIP=      6 IndIPD=      5 C=  9.549377D-01  0.000000D+00                             NZ=T
 IS=     2 IAt=     1 ISR=     2 T=1 IP=      1 IndIP=      7 IndIPD=      0 C= -6.179340D-01  3.116944D+00                             NZ=T
 IS=     2 IAt=     1 ISR=     2 T=1 IP=      2 IndIP=      8 IndIPD=      1 C= -2.757209D-01  2.401438D+00                             NZ=T
 IS=     2 IAt=     1 ISR=     2 T=1 IP=      3 IndIP=      9 IndIPD=      2 C=  8.142076D-01  1.054360D+00                             NZ=T
 IS=     3 IAt=     1 ISR=     3 T=1 IP=      1 IndIP=     10 IndIPD=      0 C=  2.669562D-01  2.774320D-01                             NZ=T
 IS=     4 IAt=     1 ISR=     4 T=2 IP=      1 IndIP=     11 IndIPD=      1 C=  0.000000D+00  0.000000D+00  1.113825D+00  0.000000D+00 NZ=T
 IS=     5 IAt=     2 ISR=     1 T=0 IP=      1 IndIP=     12 IndIPD=      0 C=  2.149354D-01  0.000000D+00                             NZ=T
 IS=     5 IAt=     2 ISR=     1 T=0 IP=      2 IndIP=     13 IndIPD=      1 C=  3.645712D-01  0.000000D+00                             NZ=T
 IS=     5 IAt=     2 ISR=     1 T=0 IP=      3 IndIP=     14 IndIPD=      2 C=  4.150514D-01  0.000000D+00                             NZ=T
 IS=     6 IAt=     2 ISR=     2 T=0 IP=      1 IndIP=     15 IndIPD=      0 C=  1.813806D-01  0.000000D+00                             NZ=T
 IS=     7 IAt=     3 ISR=     1 T=0 IP=      1 IndIP=     16 IndIPD=      0 C=  2.149354D-01  0.000000D+00                             NZ=T
 IS=     7 IAt=     3 ISR=     1 T=0 IP=      2 IndIP=     17 IndIPD=      1 C=  3.645712D-01  0.000000D+00                             NZ=T
 IS=     7 IAt=     3 ISR=     1 T=0 IP=      3 IndIP=     18 IndIPD=      2 C=  4.150514D-01  0.000000D+00                             NZ=T
 IS=     8 IAt=     3 ISR=     2 T=0 IP=      1 IndIP=     19 IndIPD=      0 C=  1.813806D-01  0.000000D+00                             NZ=T
 IExCor=32609 DFT=T Ex+Corr=LC-wPBE ExCW=0 ScaHFX=  1.000000
 ScaDFX=  1.000000  0.000000  1.000000  1.000000 ScalE2=  1.000000  1.000000
 IRadAn=      0 IRanWt=     -1 IRanGd=            0 ICorTp=0 IEmpDi=  4
  HFx wShort=  0.000000 wLong=  0.400000 cFull=  0.000000 cShort=  0.000000 cLong=  1.000000
  DFx wShort=  0.000000 wLong=  0.400000 cFull=  0.000000 cShort=  0.000000 cLong=  1.000000
 NAtoms=    3 NActive=    3 NUniq=    3 SFac= 1.00D+00 NAtFMM=   60 NAOKFM=F Big=F
 Integral buffers will be    131072 words long.
 Raffenetti 2 integral format.
 Two-electron integral symmetry is turned off.
 Leave Link  301 at Thu Dec 25 14:11:24 2014, MaxMem=   134217728 cpu:         0.0
 (Enter /opt/g09_D01_em64t/g09/l302.exe)
 NPDir=0 NMtPBC=     1 NCelOv=     1 NCel=       1 NClECP=     1 NCelD=      1
         NCelK=      1 NCelE2=     1 NClLst=     1 CellRange=     0.0.
 One-electron integrals computed using PRISM.
 Entering OneElI...
 Calculate overlap and kinetic energy integrals
    NBasis =  19  MinDer = 0  MaxDer = 0
 Requested accuracy = 0.1000D-12
 PrsmSu:  NPrtUS=   1 ThrOK=F IAlg=1 NPAlg=1 LenDen=           0.
 Prism:   IPart=     0 DynPar=F LinDyn=F Incr=           1.
 PRISM was handed   134210365 working-precision words and    36 shell-pairs
 IPart=  0 NShTot=          36 NBatch=          21 AvBLen=         1.7
 PrSmSu:  NxtVal=              2.
 *** Overlap *** 
                1             2             3             4             5 
      1  0.100000D+01
      2  0.233690D+00  0.100000D+01
      3  0.000000D+00  0.000000D+00  0.100000D+01
      4  0.000000D+00  0.000000D+00  0.000000D+00  0.100000D+01
      5  0.000000D+00  0.000000D+00  0.000000D+00  0.000000D+00  0.100000D+01
      6  0.167280D+00  0.763641D+00  0.000000D+00  0.000000D+00  0.000000D+00
      7  0.000000D+00  0.000000D+00  0.501521D+00  0.000000D+00  0.000000D+00
      8  0.000000D+00  0.000000D+00  0.000000D+00  0.501521D+00  0.000000D+00
      9  0.000000D+00  0.000000D+00  0.000000D+00  0.000000D+00  0.501521D+00
     10  0.335315D-01  0.547066D+00  0.000000D+00  0.000000D+00  0.000000D+00
     11  0.335315D-01  0.547066D+00  0.000000D+00  0.000000D+00  0.000000D+00
     12  0.335315D-01  0.547066D+00  0.000000D+00  0.000000D+00  0.000000D+00
     13  0.000000D+00  0.000000D+00  0.000000D+00  0.000000D+00  0.000000D+00
     14  0.000000D+00  0.000000D+00  0.000000D+00  0.000000D+00  0.000000D+00
     15  0.000000D+00  0.000000D+00  0.000000D+00  0.000000D+00  0.000000D+00
     16  0.346526D-01  0.247247D+00  0.286266D+00  0.000000D+00  0.000000D+00
     17  0.688189D-01  0.379507D+00  0.147807D+00  0.000000D+00  0.000000D+00
     18  0.346526D-01  0.247247D+00 -0.955577D-01  0.269846D+00  0.000000D+00
     19  0.688189D-01  0.379507D+00 -0.493390D-01  0.139329D+00  0.000000D+00
                6             7             8             9            10 
      6  0.100000D+01
      7  0.000000D+00  0.100000D+01
      8  0.000000D+00  0.000000D+00  0.100000D+01
      9  0.000000D+00  0.000000D+00  0.000000D+00  0.100000D+01
     10  0.699015D+00  0.000000D+00  0.000000D+00  0.000000D+00  0.100000D+01
     11  0.699015D+00  0.000000D+00  0.000000D+00  0.000000D+00  0.333333D+00
     12  0.699015D+00  0.000000D+00  0.000000D+00  0.000000D+00  0.333333D+00
     13  0.000000D+00  0.000000D+00  0.000000D+00  0.000000D+00  0.000000D+00
     14  0.000000D+00  0.000000D+00  0.000000D+00  0.000000D+00  0.000000D+00
     15  0.000000D+00  0.000000D+00  0.000000D+00  0.000000D+00  0.000000D+00
     16  0.426176D+00  0.583430D+00  0.000000D+00  0.000000D+00  0.554681D+00
     17  0.682806D+00  0.481388D+00  0.000000D+00  0.000000D+00  0.470244D+00
     18  0.426176D+00 -0.194753D+00  0.549965D+00  0.000000D+00  0.209572D+00
     19  0.682806D+00 -0.160691D+00  0.453776D+00  0.000000D+00  0.407075D+00
               11            12            13            14            15 
     11  0.100000D+01
     12  0.333333D+00  0.100000D+01
     13  0.000000D+00  0.000000D+00  0.100000D+01
     14  0.000000D+00  0.000000D+00  0.000000D+00  0.100000D+01
     15  0.000000D+00  0.000000D+00  0.000000D+00  0.000000D+00  0.100000D+01
     16  0.166296D+00  0.166296D+00  0.000000D+00  0.000000D+00  0.000000D+00
     17  0.399154D+00  0.399154D+00  0.000000D+00  0.000000D+00  0.000000D+00
     18  0.511404D+00  0.166296D+00 -0.211673D+00  0.000000D+00  0.000000D+00
     19  0.462323D+00  0.399154D+00 -0.387447D-01  0.000000D+00  0.000000D+00
               16            17            18            19 
     16  0.100000D+01
     17  0.658292D+00  0.100000D+01
     18  0.425955D-01  0.207908D+00  0.100000D+01
     19  0.207908D+00  0.492649D+00  0.658292D+00  0.100000D+01
 *** Kinetic Energy *** 
                1             2             3             4             5 
      1  0.295401D+02
      2 -0.218540D+01  0.171121D+01
      3  0.000000D+00  0.000000D+00  0.425188D+01
      4  0.000000D+00  0.000000D+00  0.000000D+00  0.425188D+01
      5  0.000000D+00  0.000000D+00  0.000000D+00  0.000000D+00  0.425188D+01
      6  0.131283D+00  0.480048D+00  0.000000D+00  0.000000D+00  0.000000D+00
      7  0.000000D+00  0.000000D+00  0.547243D+00  0.000000D+00  0.000000D+00
      8  0.000000D+00  0.000000D+00  0.000000D+00  0.547243D+00  0.000000D+00
      9  0.000000D+00  0.000000D+00  0.000000D+00  0.000000D+00  0.547243D+00
     10 -0.465828D+00  0.249764D+00  0.000000D+00  0.000000D+00  0.000000D+00
     11 -0.465828D+00  0.249764D+00  0.000000D+00  0.000000D+00  0.000000D+00
     12 -0.465828D+00  0.249764D+00  0.000000D+00  0.000000D+00  0.000000D+00
     13  0.000000D+00  0.000000D+00  0.000000D+00  0.000000D+00  0.000000D+00
     14  0.000000D+00  0.000000D+00  0.000000D+00  0.000000D+00  0.000000D+00
     15  0.000000D+00  0.000000D+00  0.000000D+00  0.000000D+00  0.000000D+00
     16 -0.222688D-01  0.195359D-01  0.222208D+00  0.000000D+00  0.000000D+00
     17  0.213242D-01  0.109555D+00  0.847564D-01  0.000000D+00  0.000000D+00
     18 -0.222688D-01  0.195359D-01 -0.741744D-01  0.209462D+00  0.000000D+00
     19  0.213242D-01  0.109555D+00 -0.282923D-01  0.798949D-01  0.000000D+00
                6             7             8             9            10 
      6  0.405009D+00
      7  0.000000D+00  0.675015D+00
      8  0.000000D+00  0.000000D+00  0.675015D+00
      9  0.000000D+00  0.000000D+00  0.000000D+00  0.675015D+00
     10  0.328083D+00  0.000000D+00  0.000000D+00  0.000000D+00  0.173333D+01
     11  0.328083D+00  0.000000D+00  0.000000D+00  0.000000D+00 -0.133333D+00
     12  0.328083D+00  0.000000D+00  0.000000D+00  0.000000D+00 -0.133333D+00
     13  0.000000D+00  0.000000D+00  0.000000D+00  0.000000D+00  0.000000D+00
     14  0.000000D+00  0.000000D+00  0.000000D+00  0.000000D+00  0.000000D+00
     15  0.000000D+00  0.000000D+00  0.000000D+00  0.000000D+00  0.000000D+00
     16  0.141953D+00  0.425097D+00  0.000000D+00  0.000000D+00  0.570989D+00
     17  0.161007D+00  0.210722D+00  0.000000D+00  0.000000D+00  0.150153D+00
     18  0.141953D+00 -0.141900D+00  0.400714D+00  0.000000D+00 -0.113986D-01
     19  0.161007D+00 -0.703405D-01  0.198635D+00  0.000000D+00  0.982944D-01
               11            12            13            14            15 
     11  0.173333D+01
     12 -0.133333D+00  0.173333D+01
     13  0.000000D+00  0.000000D+00  0.280000D+01
     14  0.000000D+00  0.000000D+00  0.000000D+00  0.280000D+01
     15  0.000000D+00  0.000000D+00  0.000000D+00  0.000000D+00  0.280000D+01
     16 -0.844300D-01 -0.844300D-01  0.000000D+00  0.000000D+00  0.000000D+00
     17  0.917912D-01  0.917912D-01  0.000000D+00  0.000000D+00  0.000000D+00
     18  0.497957D+00 -0.844300D-01 -0.357208D+00  0.000000D+00  0.000000D+00
     19  0.143650D+00  0.917912D-01 -0.318079D-01  0.000000D+00  0.000000D+00
               16            17            18            19 
     16  0.139568D+01
     17  0.259735D+00  0.241917D+00
     18 -0.422876D-01  0.188643D-01  0.139568D+01
     19  0.188643D-01  0.629304D-01  0.259735D+00  0.241917D+00
 Entering OneElI...
 Calculate potential energy integrals
    NBasis =  19  MinDer = 0  MaxDer = 0
 Requested accuracy = 0.1000D-12
 PrsmSu:  NPrtUS=   1 ThrOK=F IAlg=1 NPAlg=1 LenDen=           0.
 Prism:   IPart=     0 DynPar=F LinDyn=F Incr=           1.
 PRISM was handed   134210303 working-precision words and    36 shell-pairs
 IPart=  0 NShTot=         108 NBatch=          36 AvBLen=         3.0
 PrSmSu:  NxtVal=              2.
 ***** Potential Energy ***** 
                1             2             3             4             5 
      1  0.625837D+02
      2  0.518147D+01  0.116333D+02
      3  0.147177D-01  0.100091D+00  0.127759D+02
      4  0.208251D-01  0.141625D+00 -0.269467D-01  0.127568D+02
      5  0.000000D+00  0.000000D+00  0.000000D+00  0.000000D+00  0.126807D+02
      6  0.550282D+01  0.786858D+01  0.944941D-01  0.133706D+00  0.000000D+00
      7  0.202808D-02  0.640539D-01  0.435765D+01 -0.245801D-01  0.000000D+00
      8  0.286966D-02  0.906341D-01 -0.245801D-01  0.434024D+01  0.000000D+00
      9  0.000000D+00  0.000000D+00  0.000000D+00  0.000000D+00  0.427083D+01
     10  0.635401D+00  0.494453D+01  0.174448D+00  0.568003D-01  0.000000D+00
     11  0.635156D+00  0.492784D+01  0.130747D-01  0.208538D+00  0.000000D+00
     12  0.634175D+00  0.486129D+01  0.347243D-01  0.491338D-01  0.000000D+00
     13 -0.601181D-03 -0.408194D-01  0.983810D-01  0.226460D-01  0.000000D+00
     14  0.000000D+00  0.000000D+00  0.000000D+00  0.000000D+00  0.601443D-01
     15  0.000000D+00  0.000000D+00  0.000000D+00  0.000000D+00  0.851022D-01
     16  0.109634D+01  0.236445D+01  0.249408D+01  0.197686D-01  0.000000D+00
     17  0.223490D+01  0.372781D+01  0.127029D+01  0.606909D-01  0.000000D+00
     18  0.109634D+01  0.236445D+01 -0.813905D+00  0.235762D+01  0.000000D+00
     19  0.223490D+01  0.372781D+01 -0.366821D+00  0.121769D+01  0.000000D+00
                6             7             8             9            10 
      6  0.767054D+01
      7  0.133664D+00  0.544550D+01
      8  0.189130D+00 -0.563372D-01  0.540560D+01
      9  0.000000D+00  0.000000D+00  0.000000D+00  0.524651D+01
     10  0.515699D+01  0.244627D+00  0.712419D-01  0.000000D+00  0.732273D+01
     11  0.512836D+01  0.345894D-02  0.279791D+00  0.000000D+00  0.240596D+01
     12  0.501424D+01  0.409628D-01  0.579611D-01  0.000000D+00  0.236895D+01
     13 -0.699984D-01  0.123395D+00  0.599106D-02  0.000000D+00 -0.534997D-01
     14  0.000000D+00  0.000000D+00  0.000000D+00  0.709497D-01  0.000000D+00
     15  0.000000D+00  0.000000D+00  0.000000D+00  0.100392D+00  0.000000D+00
     16  0.303768D+01  0.354032D+01  0.229677D-01  0.000000D+00  0.397586D+01
     17  0.452548D+01  0.240992D+01  0.105375D+00  0.000000D+00  0.327362D+01
     18  0.303768D+01 -0.116013D+01  0.334492D+01  0.000000D+00  0.150824D+01
     19  0.452548D+01 -0.705117D+00  0.230687D+01  0.000000D+00  0.281184D+01
               11            12            13            14            15 
     11  0.725817D+01
     12  0.236266D+01  0.701264D+01
     13 -0.104395D+00 -0.154008D-01  0.721788D+01
     14  0.000000D+00  0.000000D+00  0.000000D+00  0.710686D+01
     15  0.000000D+00  0.000000D+00  0.000000D+00 -0.266749D-01  0.708797D+01
     16  0.120838D+01  0.119934D+01  0.234119D-01  0.000000D+00  0.000000D+00
     17  0.275284D+01  0.269977D+01 -0.264880D-02  0.000000D+00  0.000000D+00
     18  0.367599D+01  0.119934D+01 -0.149010D+01  0.000000D+00  0.000000D+00
     19  0.321463D+01  0.269977D+01 -0.285883D+00  0.000000D+00  0.000000D+00
               16            17            18            19 
     16  0.638974D+01
     17  0.381164D+01  0.474249D+01
     18  0.349910D+00  0.139985D+01  0.638974D+01
     19  0.139985D+01  0.276650D+01  0.381164D+01  0.474249D+01
 ****** Core Hamiltonian ****** 
                1             2             3             4             5 
      1 -0.330435D+02
      2 -0.736688D+01 -0.992206D+01
      3 -0.147177D-01 -0.100091D+00 -0.852398D+01
      4 -0.208251D-01 -0.141625D+00  0.269467D-01 -0.850490D+01
      5  0.000000D+00  0.000000D+00  0.000000D+00  0.000000D+00 -0.842880D+01
      6 -0.537154D+01 -0.738853D+01 -0.944941D-01 -0.133706D+00  0.000000D+00
      7 -0.202808D-02 -0.640539D-01 -0.381041D+01  0.245801D-01  0.000000D+00
      8 -0.286966D-02 -0.906341D-01  0.245801D-01 -0.379300D+01  0.000000D+00
      9  0.000000D+00  0.000000D+00  0.000000D+00  0.000000D+00 -0.372359D+01
     10 -0.110123D+01 -0.469477D+01 -0.174448D+00 -0.568003D-01  0.000000D+00
     11 -0.110098D+01 -0.467808D+01 -0.130747D-01 -0.208538D+00  0.000000D+00
     12 -0.110000D+01 -0.461153D+01 -0.347243D-01 -0.491338D-01  0.000000D+00
     13  0.601181D-03  0.408194D-01 -0.983810D-01 -0.226460D-01  0.000000D+00
     14  0.000000D+00  0.000000D+00  0.000000D+00  0.000000D+00 -0.601443D-01
     15  0.000000D+00  0.000000D+00  0.000000D+00  0.000000D+00 -0.851022D-01
     16 -0.111861D+01 -0.234492D+01 -0.227187D+01 -0.197686D-01  0.000000D+00
     17 -0.221358D+01 -0.361826D+01 -0.118553D+01 -0.606909D-01  0.000000D+00
     18 -0.111861D+01 -0.234492D+01  0.739731D+00 -0.214816D+01  0.000000D+00
     19 -0.221358D+01 -0.361826D+01  0.338529D+00 -0.113779D+01  0.000000D+00
                6             7             8             9            10 
      6 -0.726553D+01
      7 -0.133664D+00 -0.477049D+01
      8 -0.189130D+00  0.563372D-01 -0.473059D+01
      9  0.000000D+00  0.000000D+00  0.000000D+00 -0.457150D+01
     10 -0.482890D+01 -0.244627D+00 -0.712419D-01  0.000000D+00 -0.558940D+01
     11 -0.480028D+01 -0.345894D-02 -0.279791D+00  0.000000D+00 -0.253929D+01
     12 -0.468616D+01 -0.409628D-01 -0.579611D-01  0.000000D+00 -0.250229D+01
     13  0.699984D-01 -0.123395D+00 -0.599106D-02  0.000000D+00  0.534997D-01
     14  0.000000D+00  0.000000D+00  0.000000D+00 -0.709497D-01  0.000000D+00
     15  0.000000D+00  0.000000D+00  0.000000D+00 -0.100392D+00  0.000000D+00
     16 -0.289573D+01 -0.311522D+01 -0.229677D-01  0.000000D+00 -0.340487D+01
     17 -0.436447D+01 -0.219920D+01 -0.105375D+00  0.000000D+00 -0.312346D+01
     18 -0.289573D+01  0.101823D+01 -0.294420D+01  0.000000D+00 -0.151964D+01
     19 -0.436447D+01  0.634777D+00 -0.210823D+01  0.000000D+00 -0.271354D+01
               11            12            13            14            15 
     11 -0.552484D+01
     12 -0.249599D+01 -0.527930D+01
     13  0.104395D+00  0.154008D-01 -0.441788D+01
     14  0.000000D+00  0.000000D+00  0.000000D+00 -0.430686D+01
     15  0.000000D+00  0.000000D+00  0.000000D+00  0.266749D-01 -0.428797D+01
     16 -0.129281D+01 -0.128377D+01 -0.234119D-01  0.000000D+00  0.000000D+00
     17 -0.266105D+01 -0.260798D+01  0.264880D-02  0.000000D+00  0.000000D+00
     18 -0.317804D+01 -0.128377D+01  0.113290D+01  0.000000D+00  0.000000D+00
     19 -0.307097D+01 -0.260798D+01  0.254075D+00  0.000000D+00  0.000000D+00
               16            17            18            19 
     16 -0.499406D+01
     17 -0.355191D+01 -0.450057D+01
     18 -0.392198D+00 -0.138099D+01 -0.499406D+01
     19 -0.138099D+01 -0.270357D+01 -0.355191D+01 -0.450057D+01
 SVDSVc IOpt=  1 IR=1
 SVDSVc V= 4.65D+00 2.32D+00 1.77D+00 1.50D+00 1.06D+00 1.02D+00 1.00D+00 1.00D+00 8.75D-01 7.93D-01
 SVDSVc V= 6.69D-01 6.34D-01 4.98D-01 4.27D-01 2.80D-01 1.84D-01 1.79D-01 1.11D-01 2.24D-02
 TstOVc:  Largest diagonal error= 2.66D-15 IB=1 I=   19.
 TstOVc:  Largest same sym error= 4.31D-15 IB=1 I=    2 J=    1.
 Orthogonalized basis functions: 
                 1             2             3             4             5 
      1   0.319356D-01  0.262779D-03 -0.640346D-01  0.000000D+00  0.378507D+00
      2   0.159887D+00  0.925286D-03 -0.176399D+00  0.000000D+00  0.138415D+00
      3   0.142846D-01  0.222232D+00  0.237610D+00  0.000000D+00 -0.274039D-01
      4   0.202479D-01 -0.157814D+00  0.330627D+00  0.000000D+00  0.280845D+00
      5   0.000000D+00  0.000000D+00  0.000000D+00  0.577058D+00  0.000000D+00
      6   0.205949D+00  0.861519D-03 -0.129579D+00  0.000000D+00  0.249799D-01
      7   0.283914D-01  0.320303D+00  0.280775D+00  0.000000D+00 -0.208922D-01
      8   0.402368D-01 -0.227395D+00  0.390473D+00  0.000000D+00  0.156661D+00
      9   0.000000D+00  0.000000D+00  0.000000D+00  0.577058D+00  0.000000D+00
     10   0.152611D+00  0.612726D-01 -0.771661D-01  0.000000D+00  0.191511D-01
     11   0.149464D+00 -0.601495D-01 -0.924103D-01  0.000000D+00 -0.117457D+00
     12   0.136832D+00  0.844002D-03 -0.151326D+00  0.000000D+00  0.747636D-01
     13  -0.845468D-02  0.468631D-01 -0.517758D-01  0.000000D+00  0.779675D+00
     14   0.000000D+00  0.000000D+00  0.000000D+00  0.000000D+00  0.000000D+00
     15   0.000000D+00  0.000000D+00  0.000000D+00  0.000000D+00  0.000000D+00
     16   0.116361D+00  0.258444D+00  0.173021D+00  0.000000D+00 -0.242896D-01
     17   0.160177D+00  0.170575D+00  0.912167D-01  0.000000D+00 -0.413569D-01
     18   0.116571D+00 -0.260858D+00  0.172157D+00  0.000000D+00 -0.212909D+00
     19   0.160239D+00 -0.170517D+00  0.886701D-01  0.000000D+00 -0.318521D-01
                 6             7             8             9            10 
      1   0.838593D+00  0.000000D+00  0.000000D+00 -0.152390D+00 -0.219788D+00
      2   0.166595D+00  0.000000D+00  0.000000D+00  0.998231D-01  0.282539D+00
      3   0.155741D+00  0.000000D+00  0.000000D+00  0.581547D+00  0.103711D+00
      4  -0.147235D-02  0.000000D+00  0.000000D+00 -0.133377D+00  0.551963D+00
      5   0.000000D+00  0.000000D+00  0.000000D+00  0.000000D+00  0.000000D+00
      6  -0.712005D-02  0.000000D+00  0.000000D+00  0.354913D-01  0.553378D-01
      7   0.738680D-01  0.000000D+00  0.000000D+00  0.135968D+00 -0.667541D-02
      8  -0.121119D-01  0.000000D+00  0.000000D+00 -0.342152D-01  0.259771D-02
      9   0.000000D+00  0.000000D+00  0.000000D+00  0.000000D+00  0.000000D+00
     10  -0.152725D+00  0.000000D+00  0.000000D+00 -0.502604D+00  0.507026D-01
     11  -0.204562D-01  0.000000D+00  0.000000D+00  0.445030D+00 -0.301550D+00
     12  -0.646124D-01  0.000000D+00  0.000000D+00  0.243678D+00  0.635337D+00
     13  -0.412039D+00  0.000000D+00  0.000000D+00  0.204934D+00 -0.352737D+00
     14   0.000000D+00  0.999997D+00  0.236876D-02  0.000000D+00  0.000000D+00
     15   0.000000D+00 -0.236876D-02  0.999997D+00  0.000000D+00  0.000000D+00
     16  -0.733150D-01  0.000000D+00  0.000000D+00 -0.392442D+00 -0.123240D+00
     17  -0.694659D-01  0.000000D+00  0.000000D+00 -0.113280D+00 -0.159850D+00
     18   0.584288D-01  0.000000D+00  0.000000D+00  0.119050D+00 -0.298547D+00
     19  -0.698129D-01  0.000000D+00  0.000000D+00  0.125758D-01 -0.249389D+00
                11            12            13            14            15 
      1   0.119710D+00 -0.460150D-02  0.000000D+00 -0.167778D+00  0.266500D+00
      2  -0.334427D+00  0.162398D-01  0.000000D+00  0.760602D+00 -0.815596D+00
      3  -0.281839D+00  0.686409D+00  0.000000D+00 -0.424836D+00 -0.639836D-01
      4  -0.389403D+00 -0.458040D+00  0.000000D+00 -0.600335D+00 -0.865333D-01
      5   0.000000D+00  0.000000D+00  0.100152D+01  0.000000D+00  0.000000D+00
      6   0.100430D-01 -0.173507D-02  0.000000D+00 -0.213789D+00 -0.188280D-01
      7   0.138235D+00 -0.380933D+00  0.000000D+00  0.525658D+00 -0.512399D-01
      8   0.191877D+00  0.250701D+00  0.000000D+00  0.742063D+00 -0.102014D+00
      9   0.000000D+00  0.000000D+00 -0.100152D+01  0.000000D+00  0.000000D+00
     10  -0.459834D+00  0.462816D+00  0.000000D+00 -0.705352D-02  0.146398D+00
     11  -0.458618D+00 -0.498378D+00  0.000000D+00 -0.545014D-03  0.254550D+00
     12   0.587888D+00  0.505018D-01  0.000000D+00  0.340629D-01  0.829871D+00
     13  -0.521820D-02  0.299666D-01  0.000000D+00  0.886939D-02  0.189585D+00
     14   0.000000D+00  0.000000D+00  0.000000D+00  0.000000D+00  0.000000D+00
     15   0.000000D+00  0.000000D+00  0.000000D+00  0.000000D+00  0.000000D+00
     16  -0.776997D-01  0.243759D-01  0.000000D+00  0.934955D-01  0.728891D+00
     17   0.389840D+00 -0.353608D+00  0.000000D+00 -0.387023D+00 -0.654081D+00
     18  -0.788219D-01 -0.495758D-02  0.000000D+00  0.950105D-01  0.768520D+00
     19   0.386093D+00  0.310088D+00  0.000000D+00 -0.387993D+00 -0.673847D+00
                16            17            18            19 
      1  -0.252386D+00 -0.629885D-01  0.823862D-03 -0.418053D+00
      2   0.947872D+00  0.237059D+00 -0.268197D-02 -0.979849D+00
      3   0.119106D+00 -0.844022D-01 -0.427170D+00 -0.117471D+00
      4   0.116294D+00  0.108926D+00  0.301604D+00 -0.166170D+00
      5   0.000000D+00  0.000000D+00  0.000000D+00  0.000000D+00
      6  -0.934539D-01 -0.224327D-01 -0.814707D-03  0.576978D+01
      7  -0.390843D+00 -0.493420D+00  0.163055D+01  0.552675D+00
      8  -0.781987D+00  0.712210D-01 -0.114696D+01  0.781171D+00
      9   0.000000D+00  0.000000D+00  0.000000D+00  0.000000D+00
     10  -0.811474D+00 -0.957033D+00  0.419265D+00 -0.128429D+01
     11  -0.103100D+01  0.478953D+00 -0.409976D+00 -0.134287D+01
     12  -0.206837D+00 -0.465455D-01  0.109632D-03 -0.157430D+01
     13   0.299020D+00 -0.191415D+00  0.157250D+00 -0.935456D-01
     14   0.000000D+00  0.000000D+00  0.000000D+00  0.000000D+00
     15   0.000000D+00  0.000000D+00  0.000000D+00  0.000000D+00
     16   0.573677D+00  0.137572D+01 -0.412143D+00 -0.203395D+00
     17   0.269719D+00 -0.821315D+00 -0.142867D+01 -0.125386D+01
     18   0.118089D+01 -0.895192D+00  0.398677D+00 -0.202531D+00
     19  -0.153441D+00  0.835743D+00  0.143131D+01 -0.125373D+01
 NBasis=    19 RedAO= T EigKep=  2.24D-02  NBF=    19
 NBsUse=    19 1.00D-06 EigRej= -1.00D+00 NBFU=    19
 Precomputing XC quadrature grid using
 IXCGrd= 4 IRadAn=           0 IRanWt=          -1 IRanGd=           0 AccXCQ= 0.00D+00.
 SetAtRh:  ITypeU=  24 NETotI=       0 ICharg=*** NETot=       0.
 StAtR1:  I=    1 I1=    1 IA=  8 C=   8.0 OKShel=TTT
                                                  SSP
                                                  224
 StAtR1:  I=    2 I1=    2 IA=  1 C=   1.0 OKShel=T
                                                  S
                                                  1
 StAtR1:  I=    3 I1=    3 IA=  1 C=   1.0 OKShel=T
                                                  S
                                                  1
          I=    1 IA=  8 I1=    1 NAtG= 0 NE=   8.000 C=   0.000 Err=-8.00D+00
          I=    2 IA=  1 I1=    2 NAtG= 0 NE=   1.000 C=   0.000 Err=-1.00D+00
          I=    3 IA=  1 I1=    3 NAtG= 0 NE=   1.000 C=   0.000 Err=-1.00D+00
 Generated NRdTot=       0 NPtTot=           0 NUsed=           0 NTot=          32
 NSgBfM=    19    19    19    19    19 MxSgAt=     3 MxSgA2=     3.
 IGWInf( 1) =          32 (NGWInf)
 IGWInf( 2) =           3 (NAtomA)
 IGWInf( 3) =           0 (IRadAn)
 IGWInf( 4) =          -1 (IRanWt)
 IGWInf( 5) =           0 (IRanGd)
 IGWInf( 6) =           2 (IRType)
 IGWInf( 7) =           0 (NRdTot)
 IGWInf( 8) =           0 (NGWTot)
 IGWInf( 9) =       23214 (LGWBtD)
 IGWInf(10) =           0 (NAtBtD)
 IGWInf(11) =           0 (NIRBtD)
 IGWInf(12) =           0 (NRRBtD)
 IGWInf(13) =           1 (NClRep)
 IGWInf(14) =           0 (ICntr3)
 IGWInf(15) =           0 (IPFlag)
 IGWInf(16) =           0 (IGet)  
 IGWInf(17) =           0         
 IGWInf(18) =          19         
 IGWInf(19) =          19         
 IGWInf(20) =          19         
 IGWInf(21) =          19         
 IGWInf(22) =          19         
 IGWInf(23) =           3         
 IGWInf(24) =           3         
 IGWInf(25) =           0         
 IGWInf(26) =           0         
 IGWInf(27) =           0         
 IGWInf(28) =           0         
 IGWInf(29) =           0         
 IGWInf(30) =           0         
 IGWInf(31) =           0         
 IGWInf(32) =           0         
 IAtBtD: 
              1            2            3
 Leave Link  302 at Thu Dec 25 14:11:24 2014, MaxMem=   134217728 cpu:         0.1
 (Enter /opt/g09_D01_em64t/g09/l303.exe)
 DipDrv:  MaxL=1.
 DipPsm:  J= 1 NJ= 4 MaxL=1 MMat= 4 MaxMat= 4.
 DipInt: DoE/N= T F RetVal/Mat= F T Init=T NMatP=  4 IDeriv=0 Min/MaxMlt=  0  1
 Entering OneElI...
 Multipole integrals L=0 to 1 MinM= 0 MaxM= 3.
 Requested accuracy = 0.1000D-12
 PrsmSu:  NPrtUS=   1 ThrOK=F IAlg=1 NPAlg=1 LenDen=           0.
 Prism:   IPart=     0 DynPar=F LinDyn=F Incr=           1.
 PRISM was handed   134210101 working-precision words and    36 shell-pairs
 IPart=  0 NShTot=          36 NBatch=          21 AvBLen=         1.7
 PrSmSu:  NxtVal=              2.
 Multipole matrices IBuc=  518 IX=    1 IJ=           1:
                1             2             3             4             5 
      1  0.491967D+00
      2  0.114968D+00  0.491967D+00
      3  0.727078D-01  0.496075D+00  0.491967D+00
      4  0.000000D+00  0.000000D+00  0.000000D+00  0.491967D+00
      5  0.000000D+00  0.000000D+00  0.000000D+00  0.000000D+00  0.491967D+00
      6  0.822962D-01  0.375686D+00  0.482583D+00  0.000000D+00  0.000000D+00
      7  0.100190D-01  0.329090D+00  0.246732D+00  0.000000D+00  0.000000D+00
      8  0.000000D+00  0.000000D+00  0.000000D+00  0.246732D+00  0.000000D+00
      9  0.000000D+00  0.000000D+00  0.000000D+00  0.000000D+00  0.246732D+00
     10  0.164964D-01  0.269138D+00  0.673666D+00  0.000000D+00  0.000000D+00
     11  0.164964D-01  0.269138D+00  0.224555D+00  0.000000D+00  0.000000D+00
     12  0.164964D-01  0.269138D+00  0.224555D+00  0.000000D+00  0.000000D+00
     13  0.000000D+00  0.000000D+00  0.000000D+00  0.388942D+00  0.000000D+00
     14  0.000000D+00  0.000000D+00  0.000000D+00  0.000000D+00  0.388942D+00
     15  0.000000D+00  0.000000D+00  0.000000D+00  0.000000D+00  0.000000D+00
     16  0.216119D-01  0.314694D+00  0.462057D+00  0.000000D+00  0.000000D+00
     17  0.362318D-01  0.286500D+00  0.359319D+00  0.000000D+00  0.000000D+00
     18  0.155245D-01  0.571934D-01  0.878799D-01  0.667719D-01  0.000000D+00
     19  0.330638D-01  0.153393D+00  0.232109D+00  0.578436D-01  0.000000D+00
                6             7             8             9            10 
      6  0.491967D+00
      7  0.962240D+00  0.491967D+00
      8  0.000000D+00  0.000000D+00  0.491967D+00
      9  0.000000D+00  0.000000D+00  0.000000D+00  0.491967D+00
     10  0.343892D+00  0.101838D+01  0.000000D+00  0.000000D+00  0.491967D+00
     11  0.343892D+00  0.339459D+00  0.000000D+00  0.000000D+00  0.163989D+00
     12  0.343892D+00  0.339459D+00  0.000000D+00  0.000000D+00  0.163989D+00
     13  0.000000D+00  0.000000D+00  0.587959D+00  0.000000D+00  0.000000D+00
     14  0.000000D+00  0.000000D+00  0.000000D+00  0.587959D+00  0.000000D+00
     15  0.000000D+00  0.000000D+00  0.000000D+00  0.000000D+00  0.000000D+00
     16  0.771064D+00  0.128651D+01  0.000000D+00  0.000000D+00  0.105362D+01
     17  0.799129D+00  0.138606D+01  0.000000D+00  0.000000D+00  0.617448D+00
     18  0.222655D-01  0.215150D+00  0.267458D-01  0.000000D+00 -0.484237D-01
     19  0.181295D+00  0.779995D+00  0.120484D+00  0.000000D+00  0.778015D-01
               11            12            13            14            15 
     11  0.491967D+00
     12  0.163989D+00  0.491967D+00
     13  0.000000D+00  0.000000D+00  0.491967D+00
     14  0.000000D+00  0.000000D+00  0.000000D+00  0.491967D+00
     15  0.000000D+00  0.000000D+00  0.000000D+00  0.000000D+00  0.491967D+00
     16  0.219463D+00  0.219463D+00  0.000000D+00  0.000000D+00  0.000000D+00
     17  0.317859D+00  0.317859D+00  0.000000D+00  0.000000D+00  0.000000D+00
     18  0.965572D-01  0.358631D-01  0.187517D+00  0.000000D+00  0.000000D+00
     19  0.180476D+00  0.155817D+00  0.183230D+00  0.000000D+00  0.000000D+00
               16            17            18            19 
     16  0.230610D+01
     17  0.151809D+01  0.230610D+01
     18  0.466953D-01  0.706607D-01 -0.113604D+00
     19  0.385177D+00  0.540067D+00 -0.747847D-01 -0.113604D+00
 Multipole matrices IBuc=  518 IX=    2 IJ=           1:
                1             2             3             4             5 
      1 -0.138098D+01
      2 -0.322720D+00 -0.138098D+01
      3  0.000000D+00  0.000000D+00 -0.138098D+01
      4  0.727078D-01  0.496075D+00  0.000000D+00 -0.138098D+01
      5  0.000000D+00  0.000000D+00  0.000000D+00  0.000000D+00 -0.138098D+01
      6 -0.231009D+00 -0.105457D+01  0.000000D+00  0.482583D+00  0.000000D+00
      7  0.000000D+00  0.000000D+00 -0.692588D+00  0.000000D+00  0.000000D+00
      8  0.100190D-01  0.329090D+00  0.000000D+00 -0.692588D+00  0.000000D+00
      9  0.000000D+00  0.000000D+00  0.000000D+00  0.000000D+00 -0.692588D+00
     10 -0.463062D-01 -0.755485D+00  0.000000D+00  0.224555D+00  0.000000D+00
     11 -0.463062D-01 -0.755485D+00  0.000000D+00  0.673666D+00  0.000000D+00
     12 -0.463062D-01 -0.755485D+00  0.000000D+00  0.224555D+00  0.000000D+00
     13  0.000000D+00  0.000000D+00  0.388942D+00  0.000000D+00  0.000000D+00
     14  0.000000D+00  0.000000D+00  0.000000D+00  0.000000D+00  0.000000D+00
     15  0.000000D+00  0.000000D+00  0.000000D+00  0.000000D+00  0.388942D+00
     16 -0.478545D-01 -0.341441D+00 -0.395327D+00  0.111525D+00  0.000000D+00
     17 -0.950373D-01 -0.524091D+00 -0.204118D+00  0.252592D+00  0.000000D+00
     18 -0.435522D-01 -0.159458D+00  0.659791D-01 -0.747942D-01  0.000000D+00
     19 -0.927984D-01 -0.430020D+00  0.574342D-01  0.904033D-01  0.000000D+00
                6             7             8             9            10 
      6 -0.138098D+01
      7  0.000000D+00 -0.138098D+01
      8  0.962240D+00  0.000000D+00 -0.138098D+01
      9  0.000000D+00  0.000000D+00  0.000000D+00 -0.138098D+01
     10 -0.965322D+00  0.000000D+00  0.339459D+00  0.000000D+00 -0.138098D+01
     11 -0.965322D+00  0.000000D+00  0.101838D+01  0.000000D+00 -0.460325D+00
     12 -0.965322D+00  0.000000D+00  0.339459D+00  0.000000D+00 -0.460325D+00
     13  0.000000D+00  0.587959D+00  0.000000D+00  0.000000D+00  0.000000D+00
     14  0.000000D+00  0.000000D+00  0.000000D+00  0.000000D+00  0.000000D+00
     15  0.000000D+00  0.000000D+00  0.000000D+00  0.587959D+00  0.000000D+00
     16 -0.588539D+00 -0.805702D+00  0.224621D+00  0.000000D+00 -0.766001D+00
     17 -0.942938D+00 -0.664785D+00  0.822661D+00  0.000000D+00 -0.649395D+00
     18 -0.593401D-01  0.251300D-01  0.153656D+00  0.000000D+00 -0.121028D+00
     19 -0.506296D+00  0.119151D+00  0.486188D+00  0.000000D+00 -0.445368D+00
               11            12            13            14            15 
     11 -0.138098D+01
     12 -0.460325D+00 -0.138098D+01
     13  0.000000D+00  0.000000D+00 -0.138098D+01
     14  0.000000D+00  0.000000D+00  0.000000D+00 -0.138098D+01
     15  0.000000D+00  0.000000D+00  0.000000D+00  0.000000D+00 -0.138098D+01
     16 -0.229650D+00 -0.229650D+00  0.238419D+00  0.000000D+00  0.000000D+00
     17 -0.551221D+00 -0.551221D+00  0.210425D+00  0.000000D+00  0.000000D+00
     18 -0.891456D-02 -0.998946D-01  0.237831D-01  0.000000D+00  0.000000D+00
     19 -0.276772D+00 -0.436701D+00 -0.278518D-01  0.000000D+00  0.000000D+00
               16            17            18            19 
     16 -0.138098D+01
     17 -0.909085D+00 -0.138098D+01
     18 -0.224025D-01  0.179305D-02  0.329105D+00
     19 -0.220485D+00 -0.259102D+00  0.216647D+00  0.329105D+00
 Multipole matrices IBuc=  518 IX=    3 IJ=           1:
                1             2             3             4             5 
      1  0.339558D+01
      2  0.793513D+00  0.339558D+01
      3  0.000000D+00  0.000000D+00  0.339558D+01
      4  0.000000D+00  0.000000D+00  0.000000D+00  0.339558D+01
      5  0.727078D-01  0.496075D+00  0.000000D+00  0.000000D+00  0.339558D+01
      6  0.568012D+00  0.259300D+01  0.000000D+00  0.000000D+00  0.482583D+00
      7  0.000000D+00  0.000000D+00  0.170295D+01  0.000000D+00  0.000000D+00
      8  0.000000D+00  0.000000D+00  0.000000D+00  0.170295D+01  0.000000D+00
      9  0.100190D-01  0.329090D+00  0.000000D+00  0.000000D+00  0.170295D+01
     10  0.113859D+00  0.185761D+01  0.000000D+00  0.000000D+00  0.224555D+00
     11  0.113859D+00  0.185761D+01  0.000000D+00  0.000000D+00  0.224555D+00
     12  0.113859D+00  0.185761D+01  0.000000D+00  0.000000D+00  0.673666D+00
     13  0.000000D+00  0.000000D+00  0.000000D+00  0.000000D+00  0.000000D+00
     14  0.000000D+00  0.000000D+00  0.388942D+00  0.000000D+00  0.000000D+00
     15  0.000000D+00  0.000000D+00  0.000000D+00  0.388942D+00  0.000000D+00
     16  0.117666D+00  0.839545D+00  0.972040D+00  0.000000D+00  0.111525D+00
     17  0.233680D+00  0.128865D+01  0.501890D+00  0.000000D+00  0.252592D+00
     18  0.117666D+00  0.839545D+00 -0.324474D+00  0.916285D+00  0.111525D+00
     19  0.233680D+00  0.128865D+01 -0.167534D+00  0.473103D+00  0.252592D+00
                6             7             8             9            10 
      6  0.339558D+01
      7  0.000000D+00  0.339558D+01
      8  0.000000D+00  0.000000D+00  0.339558D+01
      9  0.962240D+00  0.000000D+00  0.000000D+00  0.339558D+01
     10  0.237356D+01  0.000000D+00  0.000000D+00  0.339459D+00  0.339558D+01
     11  0.237356D+01  0.000000D+00  0.000000D+00  0.339459D+00  0.113186D+01
     12  0.237356D+01  0.000000D+00  0.000000D+00  0.101838D+01  0.113186D+01
     13  0.000000D+00  0.000000D+00  0.000000D+00  0.000000D+00  0.000000D+00
     14  0.000000D+00  0.587959D+00  0.000000D+00  0.000000D+00  0.000000D+00
     15  0.000000D+00  0.000000D+00  0.587959D+00  0.000000D+00  0.000000D+00
     16  0.144711D+01  0.198108D+01  0.000000D+00  0.224621D+00  0.188346D+01
     17  0.231852D+01  0.163459D+01  0.000000D+00  0.822661D+00  0.159675D+01
     18  0.144711D+01 -0.661299D+00  0.186745D+01  0.224621D+00  0.711620D+00
     19  0.231852D+01 -0.545638D+00  0.154083D+01  0.822661D+00  0.138226D+01
               11            12            13            14            15 
     11  0.339558D+01
     12  0.113186D+01  0.339558D+01
     13  0.000000D+00  0.000000D+00  0.339558D+01
     14  0.000000D+00  0.000000D+00  0.000000D+00  0.339558D+01
     15  0.000000D+00  0.000000D+00  0.000000D+00  0.000000D+00  0.339558D+01
     16  0.564671D+00  0.564671D+00  0.000000D+00  0.238419D+00  0.000000D+00
     17  0.135536D+01  0.135536D+01  0.000000D+00  0.210425D+00  0.000000D+00
     18  0.173651D+01  0.564671D+00 -0.718751D+00 -0.795859D-01  0.224744D+00
     19  0.156985D+01  0.135536D+01 -0.131561D+00 -0.702412D-01  0.198355D+00
               16            17            18            19 
     16  0.339558D+01
     17  0.223528D+01  0.339558D+01
     18  0.144636D+00  0.705967D+00  0.339558D+01
     19  0.705967D+00  0.167283D+01  0.223528D+01  0.339558D+01
 Fermi contact integrals: 
                 1             2             3 
      1   0.118438D+02  0.000000D+00  0.000000D+00
      2  -0.794473D-01  0.289556D-01  0.289556D-01
      3   0.000000D+00  0.680589D-01 -0.227185D-01
      4   0.000000D+00  0.000000D+00  0.641551D-01
      5   0.000000D+00  0.000000D+00  0.000000D+00
      6   0.266956D+00  0.109779D+00  0.109779D+00
      7   0.000000D+00  0.206969D+00 -0.690878D-01
      8   0.000000D+00  0.000000D+00  0.195098D+00
      9   0.000000D+00  0.000000D+00  0.000000D+00
     10   0.000000D+00  0.263460D+00  0.293565D-01
     11   0.000000D+00  0.000000D+00  0.234103D+00
     12   0.000000D+00  0.000000D+00  0.000000D+00
     13   0.000000D+00  0.000000D+00 -0.143587D+00
     14   0.000000D+00  0.000000D+00  0.000000D+00
     15   0.000000D+00  0.000000D+00  0.000000D+00
     16   0.505197D-01  0.994558D+00  0.150462D-02
     17   0.106678D+00  0.181381D+00  0.440216D-01
     18   0.505197D-01  0.150462D-02  0.994558D+00
     19   0.106678D+00  0.440216D-01  0.181381D+00
 Leave Link  303 at Thu Dec 25 14:11:24 2014, MaxMem=   134217728 cpu:         0.0
 (Enter /opt/g09_D01_em64t/g09/l401.exe)
 ExpMin= 1.61D-01 ExpMax= 5.48D+03 ExpMxC= 8.25D+02 IAcc=1 IRadAn=         1 AccDes= 0.00D+00
 Harris functional with IExCor=32609 and IRadAn=       1 diagonalized for initial guess.
 HarFok:  IExCor=32609 AccDes= 0.00D+00 IRadAn=         1 IDoV= 1 UseB2=F ITyADJ=14
 ICtDFT=  3500011 ScaDFX=  1.000000  1.000000  1.000000  1.000000
 FoFCou: FMM=F IPFlag=           0 FMFlag=      100000 FMFlg1=           0
         NFxFlg=           0 DoJE=T BraDBF=F KetDBF=T FulRan=T
         wScrn=  0.000000 ICntrl=     500 IOpCl=  0 I1Cent=   200000004 NGrid=           0
         NMat0=    1 NMatS0=      1 NMatT0=    0 NMatD0=    1 NMtDS0=    0 NMtDT0=    0
 Symmetry not used in FoFCou.
 Harris En= -76.3844623082099    
 JPrj=0 DoOrth=F DoCkMO=F.
 Leave Link  401 at Thu Dec 25 14:11:24 2014, MaxMem=   134217728 cpu:         0.1
 (Enter /opt/g09_D01_em64t/g09/l502.exe)
 A Direct SCF calculation will be performed.
 GetPCM: File not found, return IValue=0.
 Pruned (  75, 302) grid will be used in numerical quadrature.
 Closed shell SCF:
 Using DIIS extrapolation, IDIIS=  1040.
 Two-electron integral symmetry not used.
 ReadGW:  IGet=1 IStart=        3029 Next=        3029 LGW=           0.
 Pruned (  75, 302) grid will be used in numerical quadrature.
 NBasis=       19 NAllTT=      231 NAllSq=      441 NWIIB=         0
 INEq=        420 LenNEq=        0 IIJ=         807 ID=          892
 IDD=        1333 IDA=         892 IDB=        1123 IF=         1873
 IFF=        2314 IFA=        1873 IFB=        2104 IScr2=      2854
 IV=         3029 IBuf2E=     3029 IMin1=     20131 IMin=      20131
 IV=        20131 IOpCl=         0
 SetICI:  IOpClM=           0 LR1=              1 LR2=              0 LR3=              0
          LRAOJ=        36290 InStor=           3 jStart=       20131 jR1=          20131
          jR2=          56421 jR3=          56421 LenR=         36290 jVInt=        56421
          jVSAO=        56421 jVPerm=       56421 MDV=      134217728
 Keep R1 ints in memory in canonical form, NReq=915639.
 IVT=       20131 IEndB=       20131 NGot=   134217728 MDV=   134161308
 LenX=   134161308 LenY=   134160426
 Requested convergence on RMS density matrix=1.00D-08 within 128 cycles.
 Requested convergence on MAX density matrix=1.00D-06.
 Requested convergence on             energy=1.00D-06.
 No special actions if energy rises.
 FoFCou: FMM=F IPFlag=           0 FMFlag=           0 FMFlg1=           0
         NFxFlg=           0 DoJE=F BraDBF=F KetDBF=F FulRan=T
         wScrn=  0.000000 ICntrl=     600 IOpCl=  0 I1Cent=           0 NGrid=           0
         NMat0=    1 NMatS0=    190 NMatT0=    0 NMatD0=    1 NMtDS0=    0 NMtDT0=    0
 Symmetry not used in FoFCou.
 FoFCou:  KetSym=F NOpSet=  1 NOpAb=1 NOp=  1.
 FoFCou:  CnvScl= 1.00D+00 Thresh= 1.00D-10 IAcrcy=      10.
 ShPair: Thresh= 1.00D-10 NBox=     0 BxSize= 0.00D+00 RnKept= 2.96D+00
         NSMCal=                   36 NSMKep=                  36
 PrismS was handed   134154558 working-precision words and    36 shell-pairs
 FoFCou: LinMIO=F DoNuc=F BraDBF=F KetDBF=F HaveP=F PDBF=F HaveZ=F HaveW=F
         NIJTC =       6 NIJTAt=       0 NIJTCD=       0 NIJTT =       6
         IJTBeg=       1 IJTEnd=       6 KLTBeg=       1 KLTEnd=       6
         IPTBeg=       1 IPTEnd=       6 IPTBCv=       1 IPTECv=       6
         IZTBeg=       1 IZTEnd=       6 IZTBCv=       1 IZTECv=       6
         IWTBeg=       7 IWTEnd=       6 IWTBCv=       7 IWTECv=       6
         INTBeg=       1 INTEnd=       0 IFTBCv=       1 IFTECv=       6
 NCel replicated for PrismC:     1
 CoulSu:  IncDef=  1024 NBBP=            666 NTPThr=   100 NPartT=    1 Incr=           6 LDynOK=F.
 CoulSu:  NPrtUS=   1 ThrOK=F IAlg=1 NPAlg=1 LenDen=           0 LWGrdD=           0 DoCopy=F.
 Enter PrismC: JobTyp=20 DoJE=F Cont=F.
 PrismC:  IPart=     0 DynPar=F LinDyn=F Incr=           6 UseFst=F UseS4=T IGathr=1.
 PrismC was handed   134154493 working-precision words and    36 shell-pairs
 IPart=  0 NShTot=         666 NShNF=         666 NShFF=           0 NBatch=         231 AvBLen=         2.9
 CoulSu:  NxtVal=              7.
 FoFCou: FMM=F IPFlag=           0 FMFlag=           0 FMFlg1=           0
         NFxFlg=           0 DoJE=F BraDBF=F KetDBF=F FulRan=T
         wScrn=  0.000000 ICntrl=     600 IOpCl=  0 I1Cent=           0 NGrid=           0
         NMat0=    1 NMatS0=    190 NMatT0=    0 NMatD0=    1 NMtDS0=    0 NMtDT0=    0
         CW=    0.000000    1.000000
         WU=    0.000000    3.125000
 Symmetry not used in FoFCou.
 FoFCou:  KetSym=F NOpSet=  1 NOpAb=1 NOp=  1.
 FoFCou:  CnvScl= 1.00D+00 Thresh= 1.00D-10 IAcrcy=      10.
 ShPair: Thresh= 1.00D-10 NBox=     0 BxSize= 0.00D+00 RnKept= 2.96D+00
         NSMCal=                   36 NSMKep=                  36
 PrismS was handed   134154558 working-precision words and    36 shell-pairs
 FoFCou: LinMIO=F DoNuc=F BraDBF=F KetDBF=F HaveP=F PDBF=F HaveZ=F HaveW=F
         NIJTC =       6 NIJTAt=       0 NIJTCD=       0 NIJTT =       6
         IJTBeg=       1 IJTEnd=       6 KLTBeg=       1 KLTEnd=       6
         IPTBeg=       1 IPTEnd=       6 IPTBCv=       1 IPTECv=       6
         IZTBeg=       1 IZTEnd=       6 IZTBCv=       1 IZTECv=       6
         IWTBeg=       7 IWTEnd=       6 IWTBCv=       7 IWTECv=       6
         INTBeg=       1 INTEnd=       0 IFTBCv=       1 IFTECv=       6
 NCel replicated for PrismC:     1
 CoulSu:  IncDef=  1024 NBBP=            666 NTPThr=   100 NPartT=    1 Incr=           6 LDynOK=F.
 CoulSu:  NPrtUS=   1 ThrOK=F IAlg=1 NPAlg=1 LenDen=           0 LWGrdD=           0 DoCopy=F.
 Enter PrismC: JobTyp=20 DoJE=F Cont=F.
 Linear combination for Coulomb/exchange, wScrn=  0.000000
 CW=    0.000000    1.000000
 WU=    0.000000    3.125000
 PrismC:  IPart=     0 DynPar=F LinDyn=F Incr=           6 UseFst=F UseS4=T IGathr=1.
 PrismC was handed   134154493 working-precision words and    36 shell-pairs
 IPart=  0 NShTot=         666 NShNF=         666 NShFF=           0 NBatch=         231 AvBLen=         2.9
 CoulSu:  NxtVal=              7.
 Selected VarAcc= 4.
 Integral accuracy reduced to 1.0D-05 until final iterations.

 Cycle   1  Pass 0  IDiag  1:
 Core hamiltonian (alpha):
                1             2             3             4             5 
      1 -0.330435D+02
      2 -0.736688D+01 -0.992206D+01
      3 -0.147177D-01 -0.100091D+00 -0.852398D+01
      4 -0.208251D-01 -0.141625D+00  0.269467D-01 -0.850490D+01
      5  0.000000D+00  0.000000D+00  0.000000D+00  0.000000D+00 -0.842880D+01
      6 -0.537154D+01 -0.738853D+01 -0.944941D-01 -0.133706D+00  0.000000D+00
      7 -0.202808D-02 -0.640539D-01 -0.381041D+01  0.245801D-01  0.000000D+00
      8 -0.286966D-02 -0.906341D-01  0.245801D-01 -0.379300D+01  0.000000D+00
      9  0.000000D+00  0.000000D+00  0.000000D+00  0.000000D+00 -0.372359D+01
     10 -0.110123D+01 -0.469477D+01 -0.174448D+00 -0.568003D-01  0.000000D+00
     11 -0.110098D+01 -0.467808D+01 -0.130747D-01 -0.208538D+00  0.000000D+00
     12 -0.110000D+01 -0.461153D+01 -0.347243D-01 -0.491338D-01  0.000000D+00
     13  0.601181D-03  0.408194D-01 -0.983810D-01 -0.226460D-01  0.000000D+00
     14  0.000000D+00  0.000000D+00  0.000000D+00  0.000000D+00 -0.601443D-01
     15  0.000000D+00  0.000000D+00  0.000000D+00  0.000000D+00 -0.851022D-01
     16 -0.111861D+01 -0.234492D+01 -0.227187D+01 -0.197686D-01  0.000000D+00
     17 -0.221358D+01 -0.361826D+01 -0.118553D+01 -0.606909D-01  0.000000D+00
     18 -0.111861D+01 -0.234492D+01  0.739731D+00 -0.214816D+01  0.000000D+00
     19 -0.221358D+01 -0.361826D+01  0.338529D+00 -0.113779D+01  0.000000D+00
                6             7             8             9            10 
      6 -0.726553D+01
      7 -0.133664D+00 -0.477049D+01
      8 -0.189130D+00  0.563372D-01 -0.473059D+01
      9  0.000000D+00  0.000000D+00  0.000000D+00 -0.457150D+01
     10 -0.482890D+01 -0.244627D+00 -0.712419D-01  0.000000D+00 -0.558940D+01
     11 -0.480028D+01 -0.345894D-02 -0.279791D+00  0.000000D+00 -0.253929D+01
     12 -0.468616D+01 -0.409628D-01 -0.579611D-01  0.000000D+00 -0.250229D+01
     13  0.699984D-01 -0.123395D+00 -0.599106D-02  0.000000D+00  0.534997D-01
     14  0.000000D+00  0.000000D+00  0.000000D+00 -0.709497D-01  0.000000D+00
     15  0.000000D+00  0.000000D+00  0.000000D+00 -0.100392D+00  0.000000D+00
     16 -0.289573D+01 -0.311522D+01 -0.229677D-01  0.000000D+00 -0.340487D+01
     17 -0.436447D+01 -0.219920D+01 -0.105375D+00  0.000000D+00 -0.312346D+01
     18 -0.289573D+01  0.101823D+01 -0.294420D+01  0.000000D+00 -0.151964D+01
     19 -0.436447D+01  0.634777D+00 -0.210823D+01  0.000000D+00 -0.271354D+01
               11            12            13            14            15 
     11 -0.552484D+01
     12 -0.249599D+01 -0.527930D+01
     13  0.104395D+00  0.154008D-01 -0.441788D+01
     14  0.000000D+00  0.000000D+00  0.000000D+00 -0.430686D+01
     15  0.000000D+00  0.000000D+00  0.000000D+00  0.266749D-01 -0.428797D+01
     16 -0.129281D+01 -0.128377D+01 -0.234119D-01  0.000000D+00  0.000000D+00
     17 -0.266105D+01 -0.260798D+01  0.264880D-02  0.000000D+00  0.000000D+00
     18 -0.317804D+01 -0.128377D+01  0.113290D+01  0.000000D+00  0.000000D+00
     19 -0.307097D+01 -0.260798D+01  0.254075D+00  0.000000D+00  0.000000D+00
               16            17            18            19 
     16 -0.499406D+01
     17 -0.355191D+01 -0.450057D+01
     18 -0.392198D+00 -0.138099D+01 -0.499406D+01
     19 -0.138099D+01 -0.270357D+01 -0.355191D+01 -0.450057D+01
 Core hamiltonian (beta):
                1             2             3             4             5 
      1 -0.330435D+02
      2 -0.736688D+01 -0.992206D+01
      3 -0.147177D-01 -0.100091D+00 -0.852398D+01
      4 -0.208251D-01 -0.141625D+00  0.269467D-01 -0.850490D+01
      5  0.000000D+00  0.000000D+00  0.000000D+00  0.000000D+00 -0.842880D+01
      6 -0.537154D+01 -0.738853D+01 -0.944941D-01 -0.133706D+00  0.000000D+00
      7 -0.202808D-02 -0.640539D-01 -0.381041D+01  0.245801D-01  0.000000D+00
      8 -0.286966D-02 -0.906341D-01  0.245801D-01 -0.379300D+01  0.000000D+00
      9  0.000000D+00  0.000000D+00  0.000000D+00  0.000000D+00 -0.372359D+01
     10 -0.110123D+01 -0.469477D+01 -0.174448D+00 -0.568003D-01  0.000000D+00
     11 -0.110098D+01 -0.467808D+01 -0.130747D-01 -0.208538D+00  0.000000D+00
     12 -0.110000D+01 -0.461153D+01 -0.347243D-01 -0.491338D-01  0.000000D+00
     13  0.601181D-03  0.408194D-01 -0.983810D-01 -0.226460D-01  0.000000D+00
     14  0.000000D+00  0.000000D+00  0.000000D+00  0.000000D+00 -0.601443D-01
     15  0.000000D+00  0.000000D+00  0.000000D+00  0.000000D+00 -0.851022D-01
     16 -0.111861D+01 -0.234492D+01 -0.227187D+01 -0.197686D-01  0.000000D+00
     17 -0.221358D+01 -0.361826D+01 -0.118553D+01 -0.606909D-01  0.000000D+00
     18 -0.111861D+01 -0.234492D+01  0.739731D+00 -0.214816D+01  0.000000D+00
     19 -0.221358D+01 -0.361826D+01  0.338529D+00 -0.113779D+01  0.000000D+00
                6             7             8             9            10 
      6 -0.726553D+01
      7 -0.133664D+00 -0.477049D+01
      8 -0.189130D+00  0.563372D-01 -0.473059D+01
      9  0.000000D+00  0.000000D+00  0.000000D+00 -0.457150D+01
     10 -0.482890D+01 -0.244627D+00 -0.712419D-01  0.000000D+00 -0.558940D+01
     11 -0.480028D+01 -0.345894D-02 -0.279791D+00  0.000000D+00 -0.253929D+01
     12 -0.468616D+01 -0.409628D-01 -0.579611D-01  0.000000D+00 -0.250229D+01
     13  0.699984D-01 -0.123395D+00 -0.599106D-02  0.000000D+00  0.534997D-01
     14  0.000000D+00  0.000000D+00  0.000000D+00 -0.709497D-01  0.000000D+00
     15  0.000000D+00  0.000000D+00  0.000000D+00 -0.100392D+00  0.000000D+00
     16 -0.289573D+01 -0.311522D+01 -0.229677D-01  0.000000D+00 -0.340487D+01
     17 -0.436447D+01 -0.219920D+01 -0.105375D+00  0.000000D+00 -0.312346D+01
     18 -0.289573D+01  0.101823D+01 -0.294420D+01  0.000000D+00 -0.151964D+01
     19 -0.436447D+01  0.634777D+00 -0.210823D+01  0.000000D+00 -0.271354D+01
               11            12            13            14            15 
     11 -0.552484D+01
     12 -0.249599D+01 -0.527930D+01
     13  0.104395D+00  0.154008D-01 -0.441788D+01
     14  0.000000D+00  0.000000D+00  0.000000D+00 -0.430686D+01
     15  0.000000D+00  0.000000D+00  0.000000D+00  0.266749D-01 -0.428797D+01
     16 -0.129281D+01 -0.128377D+01 -0.234119D-01  0.000000D+00  0.000000D+00
     17 -0.266105D+01 -0.260798D+01  0.264880D-02  0.000000D+00  0.000000D+00
     18 -0.317804D+01 -0.128377D+01  0.113290D+01  0.000000D+00  0.000000D+00
     19 -0.307097D+01 -0.260798D+01  0.254075D+00  0.000000D+00  0.000000D+00
               16            17            18            19 
     16 -0.499406D+01
     17 -0.355191D+01 -0.450057D+01
     18 -0.392198D+00 -0.138099D+01 -0.499406D+01
     19 -0.138099D+01 -0.270357D+01 -0.355191D+01 -0.450057D+01
 Density matrix (alpha):
                1             2             3             4             5 
      1  0.103608D+01
      2 -0.925451D-01  0.280115D+00
      3  0.113913D-01 -0.232520D-01  0.357218D+00
      4  0.161180D-01 -0.329016D-01  0.319563D-01  0.379846D+00
      5  0.000000D+00  0.000000D+00  0.000000D+00  0.000000D+00  0.476653D+00
      6 -0.102007D+00  0.267792D+00 -0.729563D-01 -0.103228D+00  0.000000D+00
      7  0.918637D-02 -0.190080D-01  0.188267D+00  0.341743D-01  0.000000D+00
      8  0.129987D-01 -0.268965D-01  0.341744D-01  0.212472D+00  0.000000D+00
      9  0.000000D+00  0.000000D+00  0.000000D+00  0.000000D+00  0.314393D+00
     10 -0.130886D-01  0.809291D-02  0.190329D-01 -0.195890D-02  0.000000D+00
     11 -0.115335D-01  0.456704D-02 -0.396687D-02  0.232770D-01  0.000000D+00
     12 -0.867889D-02 -0.230121D-02 -0.201301D-02 -0.284839D-02  0.000000D+00
     13  0.253516D-02 -0.574795D-02  0.124695D-01  0.583042D-02  0.000000D+00
     14  0.000000D+00  0.000000D+00  0.000000D+00  0.000000D+00  0.999757D-02
     15  0.000000D+00  0.000000D+00  0.000000D+00  0.000000D+00  0.141472D-01
     16 -0.177379D-01  0.432390D-01  0.156746D+00  0.397117D-02  0.000000D+00
     17  0.444674D-02 -0.138865D-01  0.535491D-01  0.555203D-02  0.000000D+00
     18 -0.177377D-01  0.432382D-01 -0.485785D-01  0.149080D+00  0.000000D+00
     19  0.444672D-02 -0.138868D-01 -0.126414D-01  0.523297D-01  0.000000D+00
                6             7             8             9            10 
      6  0.275633D+00
      7 -0.478368D-01  0.100124D+00
      8 -0.676872D-01  0.277858D-01  0.119806D+00
      9  0.000000D+00  0.000000D+00  0.000000D+00  0.207368D+00
     10  0.552676D-02  0.968034D-02 -0.471172D-03  0.000000D+00  0.145662D-02
     11  0.639939D-03 -0.113238D-02  0.125665D-01  0.000000D+00 -0.128195D-03
     12 -0.124081D-02 -0.113926D-02 -0.161207D-02  0.000000D+00 -0.693185D-04
     13 -0.796719D-02  0.687692D-02  0.393698D-02  0.000000D+00  0.464905D-03
     14  0.000000D+00  0.000000D+00  0.000000D+00  0.659424D-02  0.000000D+00
     15  0.000000D+00  0.000000D+00  0.000000D+00  0.933130D-02  0.000000D+00
     16  0.192546D-01  0.811277D-01  0.796778D-02  0.000000D+00  0.102241D-01
     17 -0.206780D-01  0.284566D-01  0.582805D-02  0.000000D+00  0.251469D-02
     18  0.192552D-01 -0.195696D-01  0.791354D-01  0.000000D+00 -0.230355D-02
     19 -0.206776D-01 -0.400527D-02  0.287698D-01  0.000000D+00 -0.152385D-02
               11            12            13            14            15 
     11  0.177217D-02
     12 -0.108700D-03  0.143135D-03
     13  0.495433D-04 -0.642035D-04  0.569462D-03
     14  0.000000D+00  0.000000D+00  0.000000D+00  0.209694D-03
     15  0.000000D+00  0.000000D+00  0.000000D+00  0.296732D-03  0.419896D-03
     16 -0.112923D-02 -0.127001D-02  0.447617D-02  0.000000D+00  0.000000D+00
     17 -0.773623D-03 -0.201531D-03  0.204888D-02  0.000000D+00  0.000000D+00
     18  0.113986D-01 -0.127004D-02 -0.646532D-03  0.000000D+00  0.000000D+00
     19  0.326491D-02 -0.201532D-03  0.397457D-03  0.000000D+00  0.000000D+00
               16            17            18            19 
     16  0.791022D-01
     17  0.215097D-01  0.841647D-02
     18 -0.153519D-01 -0.893930D-02  0.791018D-01
     19 -0.893946D-02 -0.139939D-02  0.215093D-01  0.841625D-02
 Density matrix (beta):
                1             2             3             4             5 
      1  0.103608D+01
      2 -0.925451D-01  0.280115D+00
      3  0.113913D-01 -0.232520D-01  0.357218D+00
      4  0.161180D-01 -0.329016D-01  0.319563D-01  0.379846D+00
      5  0.000000D+00  0.000000D+00  0.000000D+00  0.000000D+00  0.476653D+00
      6 -0.102007D+00  0.267792D+00 -0.729563D-01 -0.103228D+00  0.000000D+00
      7  0.918637D-02 -0.190080D-01  0.188267D+00  0.341743D-01  0.000000D+00
      8  0.129987D-01 -0.268965D-01  0.341744D-01  0.212472D+00  0.000000D+00
      9  0.000000D+00  0.000000D+00  0.000000D+00  0.000000D+00  0.314393D+00
     10 -0.130886D-01  0.809291D-02  0.190329D-01 -0.195890D-02  0.000000D+00
     11 -0.115335D-01  0.456704D-02 -0.396687D-02  0.232770D-01  0.000000D+00
     12 -0.867889D-02 -0.230121D-02 -0.201301D-02 -0.284839D-02  0.000000D+00
     13  0.253516D-02 -0.574795D-02  0.124695D-01  0.583042D-02  0.000000D+00
     14  0.000000D+00  0.000000D+00  0.000000D+00  0.000000D+00  0.999757D-02
     15  0.000000D+00  0.000000D+00  0.000000D+00  0.000000D+00  0.141472D-01
     16 -0.177379D-01  0.432390D-01  0.156746D+00  0.397117D-02  0.000000D+00
     17  0.444674D-02 -0.138865D-01  0.535491D-01  0.555203D-02  0.000000D+00
     18 -0.177377D-01  0.432382D-01 -0.485785D-01  0.149080D+00  0.000000D+00
     19  0.444672D-02 -0.138868D-01 -0.126414D-01  0.523297D-01  0.000000D+00
                6             7             8             9            10 
      6  0.275633D+00
      7 -0.478368D-01  0.100124D+00
      8 -0.676872D-01  0.277858D-01  0.119806D+00
      9  0.000000D+00  0.000000D+00  0.000000D+00  0.207368D+00
     10  0.552676D-02  0.968034D-02 -0.471172D-03  0.000000D+00  0.145662D-02
     11  0.639939D-03 -0.113238D-02  0.125665D-01  0.000000D+00 -0.128195D-03
     12 -0.124081D-02 -0.113926D-02 -0.161207D-02  0.000000D+00 -0.693185D-04
     13 -0.796719D-02  0.687692D-02  0.393698D-02  0.000000D+00  0.464905D-03
     14  0.000000D+00  0.000000D+00  0.000000D+00  0.659424D-02  0.000000D+00
     15  0.000000D+00  0.000000D+00  0.000000D+00  0.933130D-02  0.000000D+00
     16  0.192546D-01  0.811277D-01  0.796778D-02  0.000000D+00  0.102241D-01
     17 -0.206780D-01  0.284566D-01  0.582805D-02  0.000000D+00  0.251469D-02
     18  0.192552D-01 -0.195696D-01  0.791354D-01  0.000000D+00 -0.230355D-02
     19 -0.206776D-01 -0.400527D-02  0.287698D-01  0.000000D+00 -0.152385D-02
               11            12            13            14            15 
     11  0.177217D-02
     12 -0.108700D-03  0.143135D-03
     13  0.495433D-04 -0.642035D-04  0.569462D-03
     14  0.000000D+00  0.000000D+00  0.000000D+00  0.209694D-03
     15  0.000000D+00  0.000000D+00  0.000000D+00  0.296732D-03  0.419896D-03
     16 -0.112923D-02 -0.127001D-02  0.447617D-02  0.000000D+00  0.000000D+00
     17 -0.773623D-03 -0.201531D-03  0.204888D-02  0.000000D+00  0.000000D+00
     18  0.113986D-01 -0.127004D-02 -0.646532D-03  0.000000D+00  0.000000D+00
     19  0.326491D-02 -0.201532D-03  0.397457D-03  0.000000D+00  0.000000D+00
               16            17            18            19 
     16  0.791022D-01
     17  0.215097D-01  0.841647D-02
     18 -0.153519D-01 -0.893930D-02  0.791018D-01
     19 -0.893946D-02 -0.139939D-02  0.215093D-01  0.841625D-02
 One-electron energy=-0.124873019529D+03
 FoF2E:  PMaxA= 1.04D+00S
 DA number   1 in FoFMem:
                1             2             3             4             5 
      1  0.103608D+01
      2 -0.925451D-01  0.280115D+00
      3  0.113913D-01 -0.232520D-01  0.357218D+00
      4  0.161180D-01 -0.329016D-01  0.319563D-01  0.379846D+00
      5  0.000000D+00  0.000000D+00  0.000000D+00  0.000000D+00  0.476653D+00
      6 -0.102007D+00  0.267792D+00 -0.729563D-01 -0.103228D+00  0.000000D+00
      7  0.918637D-02 -0.190080D-01  0.188267D+00  0.341743D-01  0.000000D+00
      8  0.129987D-01 -0.268965D-01  0.341744D-01  0.212472D+00  0.000000D+00
      9  0.000000D+00  0.000000D+00  0.000000D+00  0.000000D+00  0.314393D+00
     10 -0.130886D-01  0.809291D-02  0.190329D-01 -0.195890D-02  0.000000D+00
     11 -0.115335D-01  0.456704D-02 -0.396687D-02  0.232770D-01  0.000000D+00
     12 -0.867889D-02 -0.230121D-02 -0.201301D-02 -0.284839D-02  0.000000D+00
     13  0.253516D-02 -0.574795D-02  0.124695D-01  0.583042D-02  0.000000D+00
     14  0.000000D+00  0.000000D+00  0.000000D+00  0.000000D+00  0.999757D-02
     15  0.000000D+00  0.000000D+00  0.000000D+00  0.000000D+00  0.141472D-01
     16 -0.177379D-01  0.432390D-01  0.156746D+00  0.397117D-02  0.000000D+00
     17  0.444674D-02 -0.138865D-01  0.535491D-01  0.555203D-02  0.000000D+00
     18 -0.177377D-01  0.432382D-01 -0.485785D-01  0.149080D+00  0.000000D+00
     19  0.444672D-02 -0.138868D-01 -0.126414D-01  0.523297D-01  0.000000D+00
                6             7             8             9            10 
      6  0.275633D+00
      7 -0.478368D-01  0.100124D+00
      8 -0.676872D-01  0.277858D-01  0.119806D+00
      9  0.000000D+00  0.000000D+00  0.000000D+00  0.207368D+00
     10  0.552676D-02  0.968034D-02 -0.471172D-03  0.000000D+00  0.145662D-02
     11  0.639939D-03 -0.113238D-02  0.125665D-01  0.000000D+00 -0.128195D-03
     12 -0.124081D-02 -0.113926D-02 -0.161207D-02  0.000000D+00 -0.693185D-04
     13 -0.796719D-02  0.687692D-02  0.393698D-02  0.000000D+00  0.464905D-03
     14  0.000000D+00  0.000000D+00  0.000000D+00  0.659424D-02  0.000000D+00
     15  0.000000D+00  0.000000D+00  0.000000D+00  0.933130D-02  0.000000D+00
     16  0.192546D-01  0.811277D-01  0.796778D-02  0.000000D+00  0.102241D-01
     17 -0.206780D-01  0.284566D-01  0.582805D-02  0.000000D+00  0.251469D-02
     18  0.192552D-01 -0.195696D-01  0.791354D-01  0.000000D+00 -0.230355D-02
     19 -0.206776D-01 -0.400527D-02  0.287698D-01  0.000000D+00 -0.152385D-02
               11            12            13            14            15 
     11  0.177217D-02
     12 -0.108700D-03  0.143135D-03
     13  0.495433D-04 -0.642035D-04  0.569462D-03
     14  0.000000D+00  0.000000D+00  0.000000D+00  0.209694D-03
     15  0.000000D+00  0.000000D+00  0.000000D+00  0.296732D-03  0.419896D-03
     16 -0.112923D-02 -0.127001D-02  0.447617D-02  0.000000D+00  0.000000D+00
     17 -0.773623D-03 -0.201531D-03  0.204888D-02  0.000000D+00  0.000000D+00
     18  0.113986D-01 -0.127004D-02 -0.646532D-03  0.000000D+00  0.000000D+00
     19  0.326491D-02 -0.201532D-03  0.397457D-03  0.000000D+00  0.000000D+00
               16            17            18            19 
     16  0.791022D-01
     17  0.215097D-01  0.841647D-02
     18 -0.153519D-01 -0.893930D-02  0.791018D-01
     19 -0.893946D-02 -0.139939D-02  0.215093D-01  0.841625D-02
 FoFMem:  NOp1=  1 NOp2=  1 NOpUse=  1 NSOp=  1 NMatL=     1 DoSAO=F
 IM=     1 IB=1 DotPA=          3.65350098
 P:
                1             2             3             4             5 
      1  0.207217D+01
      2 -0.370180D+00  0.560229D+00
      3  0.455650D-01 -0.930079D-01  0.714437D+00
      4  0.644718D-01 -0.131606D+00  0.127825D+00  0.759692D+00
      5  0.000000D+00  0.000000D+00  0.000000D+00  0.000000D+00  0.953306D+00
      6 -0.408028D+00  0.107117D+01 -0.291825D+00 -0.412910D+00  0.000000D+00
      7  0.367455D-01 -0.760318D-01  0.753067D+00  0.136697D+00  0.000000D+00
      8  0.519946D-01 -0.107586D+00  0.136698D+00  0.849887D+00  0.000000D+00
      9  0.000000D+00  0.000000D+00  0.000000D+00  0.000000D+00  0.125757D+01
     10 -0.523543D-01  0.323717D-01  0.761317D-01 -0.783559D-02  0.000000D+00
     11 -0.461342D-01  0.182682D-01 -0.158675D-01  0.931082D-01  0.000000D+00
     12 -0.347156D-01 -0.920483D-02 -0.805205D-02 -0.113936D-01  0.000000D+00
     13  0.175641D-01 -0.398230D-01  0.863910D-01  0.403943D-01  0.000000D+00
     14  0.000000D+00  0.000000D+00  0.000000D+00  0.000000D+00  0.692652D-01
     15  0.000000D+00  0.000000D+00  0.000000D+00  0.000000D+00  0.980150D-01
     16 -0.709515D-01  0.172956D+00  0.626983D+00  0.158847D-01  0.000000D+00
     17  0.177870D-01 -0.555461D-01  0.214196D+00  0.222081D-01  0.000000D+00
     18 -0.709508D-01  0.172953D+00 -0.194314D+00  0.596320D+00  0.000000D+00
     19  0.177869D-01 -0.555470D-01 -0.505658D-01  0.209319D+00  0.000000D+00
                6             7             8             9            10 
      6  0.551265D+00
      7 -0.191347D+00  0.200248D+00
      8 -0.270749D+00  0.111143D+00  0.239612D+00
      9  0.000000D+00  0.000000D+00  0.000000D+00  0.414737D+00
     10  0.221071D-01  0.387213D-01 -0.188469D-02  0.000000D+00  0.291325D-02
     11  0.255976D-02 -0.452954D-02  0.502661D-01  0.000000D+00 -0.512778D-03
     12 -0.496325D-02 -0.455704D-02 -0.644826D-02  0.000000D+00 -0.277274D-03
     13 -0.551983D-01  0.476447D-01  0.272762D-01  0.000000D+00  0.322095D-02
     14  0.000000D+00  0.000000D+00  0.000000D+00  0.456862D-01  0.000000D+00
     15  0.000000D+00  0.000000D+00  0.000000D+00  0.646491D-01  0.000000D+00
     16  0.770186D-01  0.324511D+00  0.318711D-01  0.000000D+00  0.408966D-01
     17 -0.827122D-01  0.113826D+00  0.233122D-01  0.000000D+00  0.100588D-01
     18  0.770208D-01 -0.782782D-01  0.316541D+00  0.000000D+00 -0.921419D-02
     19 -0.827105D-01 -0.160211D-01  0.115079D+00  0.000000D+00 -0.609542D-02
               11            12            13            14            15 
     11  0.354434D-02
     12 -0.434801D-03  0.286270D-03
     13  0.343246D-03 -0.444815D-03  0.341677D-02
     14  0.000000D+00  0.000000D+00  0.000000D+00  0.125817D-02
     15  0.000000D+00  0.000000D+00  0.000000D+00  0.356078D-02  0.251937D-02
     16 -0.451691D-02 -0.508005D-02  0.310118D-01  0.000000D+00  0.000000D+00
     17 -0.309449D-02 -0.806123D-03  0.141950D-01  0.000000D+00  0.000000D+00
     18  0.455944D-01 -0.508017D-02 -0.447930D-02  0.000000D+00  0.000000D+00
     19  0.130597D-01 -0.806127D-03  0.275366D-02  0.000000D+00  0.000000D+00
               16            17            18            19 
     16  0.158204D+00
     17  0.860389D-01  0.168329D-01
     18 -0.614076D-01 -0.357572D-01  0.158204D+00
     19 -0.357578D-01 -0.559757D-02  0.860373D-01  0.168325D-01
 FoFMem:  NOp1=  1 NOp2=  1 NOpUse=  1 NSOp=  1 NMatL=     1 DoSAO=F
 IM=     1 IB=1 DotFA=         37.31615576
 F:
                1             2             3             4             5 
      1  0.173778D+02
      2  0.292556D+01  0.894956D+01
      3  0.220025D-02  0.434592D-01  0.931397D+01
      4  0.311353D-02  0.614945D-01 -0.143976D-01  0.930377D+01
      5  0.000000D+00  0.000000D+00  0.000000D+00  0.000000D+00  0.926473D+01
      6  0.233334D+01  0.614656D+01  0.318531D-01  0.450719D-01  0.000000D+00
      7  0.123231D-04  0.264300D-01  0.352395D+01 -0.758632D-02  0.000000D+00
      8  0.174412D-04  0.373984D-01 -0.758638D-02  0.351858D+01  0.000000D+00
      9  0.000000D+00  0.000000D+00  0.000000D+00  0.000000D+00  0.350049D+01
     10  0.383955D+00  0.407525D+01  0.281749D-01  0.315926D-01  0.000000D+00
     11  0.383977D+00  0.407684D+01  0.290322D-01  0.493549D-01  0.000000D+00
     12  0.384199D+00  0.408127D+01  0.241349D-01  0.341503D-01  0.000000D+00
     13  0.308782D-04  0.223537D-02  0.136047D-01  0.163195D-01  0.000000D+00
     14  0.000000D+00  0.000000D+00  0.000000D+00  0.000000D+00  0.105040D-01
     15  0.000000D+00  0.000000D+00  0.000000D+00  0.000000D+00  0.148630D-01
     16  0.474943D+00  0.183159D+01  0.192220D+01  0.790382D-02  0.000000D+00
     17  0.954104D+00  0.290712D+01  0.968407D+00  0.166481D-01  0.000000D+00
     18  0.474943D+00  0.183159D+01 -0.634195D+00  0.181459D+01  0.000000D+00
     19  0.954104D+00  0.290712D+01 -0.307568D+00  0.918418D+00  0.000000D+00
                6             7             8             9            10 
      6  0.635276D+01
      7  0.416822D-01  0.492516D+01
      8  0.589799D-01 -0.729100D-02  0.491999D+01
      9  0.000000D+00  0.000000D+00  0.000000D+00  0.490252D+01
     10  0.443746D+01  0.427921D-01  0.313151D-01  0.000000D+00  0.653112D+01
     11  0.443685D+01  0.259847D-01  0.660034D-01  0.000000D+00  0.204726D+01
     12  0.443319D+01  0.226878D-01  0.321029D-01  0.000000D+00  0.204949D+01
     13 -0.855373D-03  0.200590D-01  0.180297D-01  0.000000D+00 -0.267351D-02
     14  0.000000D+00  0.000000D+00  0.000000D+00  0.148574D-01  0.000000D+00
     15  0.000000D+00  0.000000D+00  0.000000D+00  0.210230D-01  0.000000D+00
     16  0.247941D+01  0.295273D+01  0.128110D-01  0.000000D+00  0.331817D+01
     17  0.383009D+01  0.211946D+01  0.351699D-01  0.000000D+00  0.278626D+01
     18  0.247941D+01 -0.973567D+00  0.278765D+01  0.000000D+00  0.126176D+01
     19  0.383009D+01 -0.674337D+00  0.200963D+01  0.000000D+00  0.243749D+01
               11            12            13            14            15 
     11  0.652670D+01
     12  0.205092D+01  0.650936D+01
     13 -0.355830D-02  0.201337D-02  0.223973D+01
     14  0.000000D+00  0.000000D+00  0.000000D+00  0.223386D+01
     15  0.000000D+00  0.000000D+00  0.000000D+00 -0.191354D-02  0.223250D+01
     16  0.100770D+01  0.100505D+01  0.538828D-02  0.000000D+00  0.000000D+00
     17  0.239734D+01  0.239348D+01  0.507646D-02  0.000000D+00  0.000000D+00
     18  0.306411D+01  0.100505D+01 -0.722824D+00  0.000000D+00  0.000000D+00
     19  0.274612D+01  0.239348D+01 -0.118432D+00  0.000000D+00  0.000000D+00
               16            17            18            19 
     16  0.515734D+01
     17  0.319627D+01  0.421732D+01
     18  0.281933D+00  0.115753D+01  0.515734D+01
     19  0.115753D+01  0.240562D+01  0.319627D+01  0.421732D+01
 FoF2E:  FMaxA= 1.74D+01S
 ChkPGP:  NMat=1 NMatS=1 NMatT=0
 EA=  46.9162970172     0.000000000000E+00 0.000000000000E+00 0.000000000000E+00
 EB=  46.9162970172     0.000000000000E+00 0.000000000000E+00 0.000000000000E+00
 ETotA=  46.9162970172     ETotB=  46.9162970172    
 1/2 <PG(P)>=          46.916297017231
 Calling FoFDFT with Acc= 0.00D+00 ICntrl=  400011 IRadAn=       1.
 IMat=  1 1/2 <PG(P)>=          46.916297017231
[...]
      8 -0.713198D-01  0.291107D-01  0.134839D+00
      9  0.000000D+00  0.000000D+00  0.000000D+00  0.212797D+00
     10  0.986913D-02  0.141493D-01 -0.280030D-03  0.000000D+00  0.515263D-02
     11  0.442020D-03 -0.121068D-02  0.185878D-01  0.000000D+00  0.235820D-02
     12 -0.140783D-01 -0.133913D-02 -0.189480D-02  0.000000D+00  0.214856D-02
     13 -0.153700D-01  0.100694D-01  0.594692D-02  0.000000D+00  0.823309D-03
     14  0.000000D+00  0.000000D+00  0.000000D+00  0.861383D-02  0.000000D+00
     15  0.000000D+00  0.000000D+00  0.000000D+00  0.121884D-01  0.000000D+00
     16  0.900621D-01  0.108574D+00  0.765995D-02  0.000000D+00  0.182960D-01
     17 -0.229374D-01  0.578740D-01  0.575022D-02  0.000000D+00  0.777394D-02
     18  0.900623D-01 -0.290223D-01  0.104904D+00  0.000000D+00 -0.278433D-02
     19 -0.229373D-01 -0.138983D-01  0.564739D-01  0.000000D+00 -0.322185D-02
               11            12            13            14            15 
     11  0.576563D-02
     12  0.217860D-02  0.296435D-02
     13  0.176093D-03  0.489759D-04  0.114438D-02
     14  0.000000D+00  0.000000D+00  0.000000D+00  0.348680D-03
     15  0.000000D+00  0.000000D+00  0.000000D+00  0.493375D-03  0.698113D-03
     16 -0.128729D-02 -0.405016D-02  0.675056D-02  0.000000D+00  0.000000D+00
     17 -0.160666D-02 -0.180421D-03  0.488145D-02  0.000000D+00  0.000000D+00
     18  0.197930D-01 -0.405013D-02 -0.186916D-02  0.000000D+00  0.000000D+00
     19  0.938912D-02 -0.180409D-03  0.385291D-03  0.000000D+00  0.000000D+00
               16            17            18            19 
     16  0.137764D+00
     17  0.561535D-01  0.300114D-01
     18 -0.138096D-01 -0.229094D-01  0.137764D+00
     19 -0.229094D-01 -0.112289D-01  0.561535D-01  0.300114D-01
 Leave Link  502 at Thu Dec 25 14:11:25 2014, MaxMem=   134217728 cpu:         0.9
 (Enter /opt/g09_D01_em64t/g09/l601.exe)
 Copying SCF densities to generalized density rwf, IOpCl= 0 IROHF=0.

 **********************************************************************

            Population analysis using the SCF density.

 **********************************************************************

 Alpha  occ. eigenvalues --  -18.97132  -1.12490  -0.65427  -0.48307  -0.41276
 Alpha virt. eigenvalues --    0.17611   0.26332   0.92282   0.97180   1.02095
 Alpha virt. eigenvalues --    1.02254   1.19422   1.29263   1.85464   1.86003
 Alpha virt. eigenvalues --    1.90156   2.41888   2.71250   3.67556
     Molecular Orbital Coefficients:
                           1         2         3         4         5
                           O         O         O         O         O
     Eigenvalues --   -18.97132  -1.12490  -0.65427  -0.48307  -0.41276
   1 1   O  1S          0.99251  -0.20888   0.00000   0.08344   0.00000
   2        2S          0.02724   0.45833   0.00000  -0.16931   0.00000
   3        2PX         0.00062   0.07074   0.42350   0.32541   0.00000
   4        2PY         0.00087   0.10009  -0.29930   0.46045   0.00000
   5        2PZ         0.00000   0.00000   0.00000   0.00000   0.64303
   6        3S          0.01115   0.44115   0.00000  -0.37782   0.00000
   7        3PX         0.00001   0.03238   0.21847   0.22614   0.00000
   8        3PY         0.00002   0.04582  -0.15440   0.31998   0.00000
   9        3PZ         0.00000   0.00000   0.00000   0.00000   0.50771
  10        4XX        -0.00839   0.01892   0.03347   0.01468   0.00000
  11        4YY        -0.00839   0.01612  -0.03347   0.03289   0.00000
  12        4ZZ        -0.00838  -0.01146   0.00000  -0.00229   0.00000
  13        4XY         0.00001  -0.00457   0.01369   0.02970   0.00000
  14        4XZ         0.00000   0.00000   0.00000   0.00000   0.02055
  15        4YZ         0.00000   0.00000   0.00000   0.00000   0.02908
  16 2   H  1S          0.00042   0.14031   0.24066   0.13527   0.00000
  17        2S         -0.00114   0.01282   0.12553   0.09637   0.00000
  18 3   H  1S          0.00042   0.14031  -0.24066   0.13527   0.00000
  19        2S         -0.00114   0.01282  -0.12553   0.09637   0.00000
                           6         7         8         9        10
                           V         V         V         V         V
     Eigenvalues --     0.17611   0.26332   0.92282   0.97180   1.02095
   1 1   O  1S         -0.10806   0.00000   0.00000   0.04478   0.00289
   2        2S          0.11311   0.00000   0.00000  -0.28929  -0.67464
   3        2PX         0.14595   0.32109  -0.17942  -0.27789   0.44352
   4        2PY         0.20652  -0.22692   0.12680  -0.39321   0.62756
   5        2PZ         0.00000   0.00000   0.00000   0.00000   0.00000
   6        3S          1.34613   0.00000   0.00000   0.31978   1.12250
   7        3PX         0.26483   0.64437  -0.36424   0.04423  -0.55012
   8        3PY         0.37472  -0.45540   0.25742   0.06258  -0.77840
   9        3PZ         0.00000   0.00000   0.00000   0.00000   0.00000
  10        4XX        -0.04808   0.01507   0.16992   0.07705  -0.19255
  11        4YY        -0.04293  -0.01507  -0.16992   0.00275  -0.22193
  12        4ZZ        -0.06596   0.00000   0.00000  -0.18094  -0.25202
  13        4XY         0.00840   0.00616   0.06948  -0.12114  -0.04791
  14        4XZ         0.00000   0.00000   0.00000   0.00000   0.00000
  15        4YZ         0.00000   0.00000   0.00000   0.00000   0.00000
  16 2   H  1S         -0.09474  -0.09033   0.84646   0.82705   0.25403
  17        2S         -0.99830  -1.30422  -0.60737  -0.58583  -0.17205
  18 3   H  1S         -0.09474   0.09033  -0.84646   0.82705   0.25403
  19        2S         -0.99830   1.30422   0.60737  -0.58583  -0.17204
                          11        12        13        14        15
                           V         V         V         V         V
     Eigenvalues --     1.02254   1.19422   1.29263   1.85464   1.86003
   1 1   O  1S          0.00000   0.00000  -0.07734   0.00000   0.00793
   2        2S          0.00000   0.00000  -1.52970   0.00000   0.09284
   3        2PX         0.00000  -0.80973  -0.22478   0.00000   0.00348
   4        2PY         0.00000   0.57226  -0.31806   0.00000   0.00493
   5        2PZ        -0.96047   0.00000   0.00000   0.00000   0.00000
   6        3S          0.00000   0.00000   3.70502   0.00000  -0.26446
   7        3PX         0.00000   1.36695   0.57555   0.00000  -0.08216
   8        3PY         0.00000  -0.96606   0.81438   0.00000  -0.11625
   9        3PZ         1.03782   0.00000   0.00000   0.00000   0.00000
  10        4XX         0.00000  -0.02215  -0.56964   0.00000   0.00316
  11        4YY         0.00000   0.02215  -0.48045   0.00000   0.51106
  12        4ZZ         0.00000   0.00000  -0.31247   0.00000  -0.44534
  13        4XY         0.00000  -0.00906   0.14542   0.00000   0.82807
  14        4XZ         0.00928   0.00000   0.00000   0.81664   0.00000
  15        4YZ         0.01313   0.00000   0.00000  -0.57715   0.00000
  16 2   H  1S          0.00000  -0.01098  -0.26140   0.00000   0.09206
  17        2S          0.00000  -0.91413  -0.82555   0.00000   0.04112
  18 3   H  1S          0.00000   0.01097  -0.26140   0.00000   0.09206
  19        2S          0.00000   0.91413  -0.82555   0.00000   0.04113
                          16        17        18        19
                           V         V         V         V
     Eigenvalues --     1.90156   2.41888   2.71250   3.67556
   1 1   O  1S          0.00000  -0.05152   0.00000  -0.47017
   2        2S          0.00000  -0.49428   0.00000   0.28281
   3        2PX         0.00000  -0.02610  -0.02936  -0.06517
   4        2PY         0.00000  -0.03693   0.02075  -0.09222
   5        2PZ        -0.00746   0.00000   0.00000   0.00000
   6        3S          0.00000   1.51437   0.00000   3.71588
   7        3PX         0.00000   0.39483   0.77020   0.17892
   8        3PY         0.00000   0.55867  -0.54432   0.25316
   9        3PZ        -0.03479   0.00000   0.00000   0.00000
  10        4XX         0.00000   0.53751   1.04000  -1.54496
  11        4YY         0.00000   0.24043  -1.04000  -1.55252
  12        4ZZ         0.00000  -1.09274   0.00000  -1.57637
  13        4XY         0.00000  -0.48435   0.42526  -0.01232
  14        4XZ         0.57671   0.00000   0.00000   0.00000
  15        4YZ         0.81602   0.00000   0.00000   0.00000
  16 2   H  1S          0.00000  -0.82158  -0.95784   0.13263
  17        2S          0.00000  -0.12982   0.01087  -0.56822
  18 3   H  1S          0.00000  -0.82158   0.95784   0.13263
  19        2S          0.00000  -0.12982  -0.01087  -0.56822
     Density Matrix:
                           1         2         3         4         5
   1 1   O  1S          2.07134
   2        2S         -0.16566   0.47895
   3        2PX         0.02598  -0.04531   0.58050
   4        2PY         0.03676  -0.06412   0.06033   0.62323
   5        2PZ         0.00000   0.00000   0.00000   0.00000   0.82699
   6        3S         -0.22521   0.53293  -0.18347  -0.25961   0.00000
   7        3PX         0.02423  -0.04689   0.33680   0.08396   0.00000
   8        3PY         0.03429  -0.06635   0.08396   0.39627   0.00000
   9        3PZ         0.00000   0.00000   0.00000   0.00000   0.65295
  10        4XX        -0.02212   0.01192   0.04057  -0.00275   0.00000
  11        4YY        -0.01790   0.00318  -0.00467   0.05354   0.00000
  12        4ZZ        -0.01223  -0.01018  -0.00312  -0.00442   0.00000
  13        4XY         0.00688  -0.01424   0.03028   0.01825   0.00000
  14        4XZ         0.00000   0.00000   0.00000   0.00000   0.02643
  15        4YZ         0.00000   0.00000   0.00000   0.00000   0.03740
  16 2   H  1S         -0.03521   0.08284   0.31173   0.00860   0.00000
  17        2S          0.00846  -0.02094   0.17085   0.01616   0.00000
  18 3   H  1S         -0.03521   0.08284  -0.09595   0.29672   0.00000
  19        2S          0.00846  -0.02094  -0.04180   0.16645   0.00000
                           6         7         8         9        10
   6        3S          0.67498
   7        3PX        -0.14231   0.19983
   8        3PY        -0.20137   0.08023   0.25665
   9        3PZ         0.00000   0.00000   0.00000   0.51554
  10        4XX         0.00542   0.02249   0.00079   0.00000   0.00353
  11        4YY        -0.01082   0.00130   0.03286   0.00000  -0.00052
  12        4ZZ        -0.00856  -0.00178  -0.00252   0.00000  -0.00036
  13        4XY        -0.02647   0.01912   0.01436   0.00000   0.00162
  14        4XZ         0.00000   0.00000   0.00000   0.02087   0.00000
  15        4YZ         0.00000   0.00000   0.00000   0.02953   0.00000
  16 2   H  1S          0.02159   0.17542   0.02511   0.00000   0.02538
  17        2S         -0.06153   0.09926   0.02408   0.00000   0.01174
  18 3   H  1S          0.02159  -0.03489   0.17374   0.00000  -0.00684
  19        2S         -0.06153  -0.01043   0.10161   0.00000  -0.00507
                          11        12        13        14        15
  11        4YY         0.00506
  12        4ZZ        -0.00038   0.00041
  13        4XY         0.00089  -0.00003   0.00218
  14        4XZ         0.00000   0.00000   0.00000   0.00084
  15        4YZ         0.00000   0.00000   0.00000   0.00120   0.00169
  16 2   H  1S         -0.00269  -0.00384   0.01334   0.00000   0.00000
  17        2S         -0.00163  -0.00072   0.00904   0.00000   0.00000
  18 3   H  1S          0.02953  -0.00384   0.00017   0.00000   0.00000
  19        2S          0.01518  -0.00072   0.00217   0.00000   0.00000
                          16        17        18        19
  16 2   H  1S          0.19180
  17        2S          0.09009   0.05042
  18 3   H  1S         -0.03986  -0.03075   0.19180
  19        2S         -0.03075  -0.01261   0.09009   0.05042
    Full Mulliken population analysis:
                           1         2         3         4         5
   1 1   O  1S          2.07134
   2        2S         -0.03871   0.47895
   3        2PX         0.00000   0.00000   0.58050
   4        2PY         0.00000   0.00000   0.00000   0.62323
   5        2PZ         0.00000   0.00000   0.00000   0.00000   0.82699
   6        3S         -0.03767   0.40697   0.00000   0.00000   0.00000
   7        3PX         0.00000   0.00000   0.16891   0.00000   0.00000
   8        3PY         0.00000   0.00000   0.00000   0.19874   0.00000
   9        3PZ         0.00000   0.00000   0.00000   0.00000   0.32747
  10        4XX        -0.00074   0.00652   0.00000   0.00000   0.00000
  11        4YY        -0.00060   0.00174   0.00000   0.00000   0.00000
  12        4ZZ        -0.00041  -0.00557   0.00000   0.00000   0.00000
  13        4XY         0.00000   0.00000   0.00000   0.00000   0.00000
  14        4XZ         0.00000   0.00000   0.00000   0.00000   0.00000
  15        4YZ         0.00000   0.00000   0.00000   0.00000   0.00000
  16 2   H  1S         -0.00122   0.02048   0.08924   0.00000   0.00000
  17        2S          0.00058  -0.00795   0.02525   0.00000   0.00000
  18 3   H  1S         -0.00122   0.02048   0.00917   0.08007   0.00000
  19        2S          0.00058  -0.00795   0.00206   0.02319   0.00000
                           6         7         8         9        10
   6        3S          0.67498
   7        3PX         0.00000   0.19983
   8        3PY         0.00000   0.00000   0.25665
   9        3PZ         0.00000   0.00000   0.00000   0.51554
  10        4XX         0.00379   0.00000   0.00000   0.00000   0.00353
  11        4YY        -0.00756   0.00000   0.00000   0.00000  -0.00017
  12        4ZZ        -0.00598   0.00000   0.00000   0.00000  -0.00012
  13        4XY         0.00000   0.00000   0.00000   0.00000   0.00000
  14        4XZ         0.00000   0.00000   0.00000   0.00000   0.00000
  15        4YZ         0.00000   0.00000   0.00000   0.00000   0.00000
  16 2   H  1S          0.00920   0.10234   0.00000   0.00000   0.01408
  17        2S         -0.04202   0.04778   0.00000   0.00000   0.00552
  18 3   H  1S          0.00920   0.00679   0.09555   0.00000  -0.00143
  19        2S         -0.04202   0.00168   0.04611   0.00000  -0.00206
                          11        12        13        14        15
  11        4YY         0.00506
  12        4ZZ        -0.00013   0.00041
  13        4XY         0.00000   0.00000   0.00218
  14        4XZ         0.00000   0.00000   0.00000   0.00084
  15        4YZ         0.00000   0.00000   0.00000   0.00000   0.00169
  16 2   H  1S         -0.00045  -0.00064   0.00000   0.00000   0.00000
  17        2S         -0.00065  -0.00029   0.00000   0.00000   0.00000
  18 3   H  1S          0.01510  -0.00064  -0.00004   0.00000   0.00000
  19        2S          0.00702  -0.00029  -0.00008   0.00000   0.00000
                          16        17        18        19
  16 2   H  1S          0.19180
  17        2S          0.05930   0.05042
  18 3   H  1S         -0.00170  -0.00639   0.19180
  19        2S         -0.00639  -0.00621   0.05930   0.05042
     Gross orbital populations:
                           1
   1 1   O  1S          1.99192
   2        2S          0.87496
   3        2PX         0.87514
   4        2PY         0.92522
   5        2PZ         1.15446
   6        3S          0.96888
   7        3PX         0.52735
   8        3PY         0.59705
   9        3PZ         0.84301
  10        4XX         0.02890
  11        4YY         0.01936
  12        4ZZ        -0.01365
  13        4XY         0.00206
  14        4XZ         0.00084
  15        4YZ         0.00169
  16 2   H  1S          0.47605
  17        2S          0.12536
  18 3   H  1S          0.47605
  19        2S          0.12536
          Condensed to atoms (all electrons):
               1          2          3
     1  O    8.274633   0.261275   0.261276
     2  H    0.261275   0.360832  -0.020699
     3  H    0.261276  -0.020699   0.360832
 Mulliken charges:
               1
     1  O   -0.797184
     2  H    0.398592
     3  H    0.398592
 Sum of Mulliken charges =   0.00000
 Mulliken charges with hydrogens summed into heavy atoms:
               1
     1  O    0.000000
 Electronic spatial extent (au):  <R**2>=            153.7112
 Charge=              0.0000 electrons
 Dipole moment (field-independent basis, Debye):
    X=              1.1908    Y=              1.6849    Z=              0.0000  Tot=              2.0632
 Quadrupole moment (field-independent basis, Debye-Ang):
   XX=             -3.9143   YY=             -7.5563   ZZ=             -7.1879
   XY=             -1.2213   XZ=              2.1397   YZ=              3.0275
 Traceless Quadrupole moment (field-independent basis, Debye-Ang):
   XX=              2.3052   YY=             -1.3368   ZZ=             -0.9684
   XY=             -1.2213   XZ=              2.1397   YZ=              3.0275
 Octapole moment (field-independent basis, Debye-Ang**2):
  XXX=             -2.4557  YYY=             14.1676  ZZZ=            -38.7471  XYY=             -0.9461
  XXY=              2.3676  XXZ=             -7.0335  XZZ=              1.7106  YZZ=             10.3211
  YYZ=            -13.5776  XYZ=             -2.1946
 Hexadecapole moment (field-independent basis, Debye-Ang**3):
 XXXX=             -5.9512 YYYY=            -25.0220 ZZZZ=           -144.4368 XXXY=              1.6494
 XXXZ=             -4.4126 YYYX=              3.3359 YYYZ=             25.4572 ZZZX=             -4.5954
 ZZZY=             36.0866 XXYY=             -4.1939 XXZZ=            -15.2912 YYZZ=            -29.6687
 XXYZ=              4.2543 YYXZ=             -1.7000 ZZXY=             -2.4063
 N-N= 9.157115983089D+00 E-N=-1.988236583776D+02  KE= 7.574564077413D+01
 Orbital energies and kinetic energies (alpha):
                                 1                 2
   1         O               -18.971324         29.008467
   2         O                -1.124902          2.534668
   3         O                -0.654271          1.792867
   4         O                -0.483069          2.243822
   5         O                -0.412765          2.292996
   6         V                 0.176109          1.158523
   7         V                 0.263318          1.180700
   8         V                 0.922816          2.182569
   9         V                 0.971795          2.972426
  10         V                 1.020950          2.970733
  11         V                 1.022544          3.559129
  12         V                 1.194222          3.751605
  13         V                 1.292632          2.420125
  14         V                 1.854638          2.800000
  15         V                 1.860031          2.792314
  16         V                 1.901559          2.797064
  17         V                 2.418883          3.494031
  18         V                 2.712503          3.910237
  19         V                 3.675560          9.902081
 Total kinetic energy from orbitals= 7.574564077413D+01
 No NMR shielding tensors so no spin-rotation constants.
 Leave Link  601 at Thu Dec 25 14:11:25 2014, MaxMem=   134217728 cpu:         0.1
 (Enter /opt/g09_D01_em64t/g09/l9999.exe)

 Test job not archived.
 1\1\GINC-EAM\SP\RLC-wPBE\6-31G(d)\H2O1\DULIKAI\25-Dec-2014\0\\#p LC-wp
 be/6-31g* gfinput Iop(5/33=3,3/33=1,6/7=3) gfprint iop(6/7=3) pop=full
  nosymm\\dscf\\0,1\O,0,0.26033786,-0.73078093,1.79686349\H,0,1.2203378
 6,-0.73078093,1.79686349\H,0,-0.06011673,0.1741549,1.79686349\\Version
 =EM64L-G09RevD.01\HF=-76.3667188\RMSD=6.928e-09\Dipole=0.4684848,0.662
 8904,0.\Quadrupole=1.7138407,-0.9938531,-0.7199876,-0.908027,1.5907777
 ,2.2508974\PG=C02V [C2(O1),SGV(H2)]\\@


 THE MORE ACCURATE THE CALCULATIONS BECOME, THE MORE THE CONCEPTS
 TEND TO VANISH INTO THIN AIR.
     -- R.S. MULLIKEN, J.C.P. 43,S2(1965)
 Job cpu time:       0 days  0 hours  0 minutes  1.4 seconds.
 File lengths (MBytes):  RWF=      5 Int=      0 D2E=      0 Chk=      1 Scr=      1
 Normal termination of Gaussian 09 at Thu Dec 25 14:11:25 2014.
