 Entering Gaussian System, Link 0=g09
 Input=gaussian.gjf
 Output=gaussian.log
 Initial command:
 /opt/g09_D01_em64t/g09/l1.exe "/tmp/Gau-21755.inp" -scrdir="/tmp/"
 Entering Link 1 = /opt/g09_D01_em64t/g09/l1.exe PID=     21756.
  
 Copyright (c) 1988,1990,1992,1993,1995,1998,2003,2009,2013,
            Gaussian, Inc.  All Rights Reserved.
  
 This is part of the Gaussian(R) 09 program.  It is based on
 the Gaussian(R) 03 system (copyright 2003, Gaussian, Inc.),
 the Gaussian(R) 98 system (copyright 1998, Gaussian, Inc.),
 the Gaussian(R) 94 system (copyright 1995, Gaussian, Inc.),
 the Gaussian 92(TM) system (copyright 1992, Gaussian, Inc.),
 the Gaussian 90(TM) system (copyright 1990, Gaussian, Inc.),
 the Gaussian 88(TM) system (copyright 1988, Gaussian, Inc.),
 the Gaussian 86(TM) system (copyright 1986, Carnegie Mellon
 University), and the Gaussian 82(TM) system (copyright 1983,
 Carnegie Mellon University). Gaussian is a federally registered
 trademark of Gaussian, Inc.
  
 This software contains proprietary and confidential information,
 including trade secrets, belonging to Gaussian, Inc.
  
 This software is provided under written license and may be
 used, copied, transmitted, or stored only in accord with that
 written license.
  
 The following legend is applicable only to US Government
 contracts under FAR:
  
                    RESTRICTED RIGHTS LEGEND
  
 Use, reproduction and disclosure by the US Government is
 subject to restrictions as set forth in subparagraphs (a)
 and (c) of the Commercial Computer Software - Restricted
 Rights clause in FAR 52.227-19.
  
 Gaussian, Inc.
 340 Quinnipiac St., Bldg. 40, Wallingford CT 06492
  
  
 ---------------------------------------------------------------
 Warning -- This program may not be used in any manner that
 competes with the business of Gaussian, Inc. or will provide
 assistance to any competitor of Gaussian, Inc.  The licensee
 of this program is prohibited from giving any competitor of
 Gaussian, Inc. access to this program.  By using this program,
 the user acknowledges that Gaussian, Inc. is engaged in the
 business of creating and licensing software in the field of
 computational chemistry and represents and warrants to the
 licensee that it is not a competitor of Gaussian, Inc. and that
 it will not use this program in any manner prohibited above.
 ---------------------------------------------------------------
  

 Cite this work as:
 Gaussian 09, Revision D.01,
 M. J. Frisch, G. W. Trucks, H. B. Schlegel, G. E. Scuseria, 
 M. A. Robb, J. R. Cheeseman, G. Scalmani, V. Barone, B. Mennucci, 
 G. A. Petersson, H. Nakatsuji, M. Caricato, X. Li, H. P. Hratchian, 
 A. F. Izmaylov, J. Bloino, G. Zheng, J. L. Sonnenberg, M. Hada, 
 M. Ehara, K. Toyota, R. Fukuda, J. Hasegawa, M. Ishida, T. Nakajima, 
 Y. Honda, O. Kitao, H. Nakai, T. Vreven, J. A. Montgomery, Jr., 
 J. E. Peralta, F. Ogliaro, M. Bearpark, J. J. Heyd, E. Brothers, 
 K. N. Kudin, V. N. Staroverov, T. Keith, R. Kobayashi, J. Normand, 
 K. Raghavachari, A. Rendell, J. C. Burant, S. S. Iyengar, J. Tomasi, 
 M. Cossi, N. Rega, J. M. Millam, M. Klene, J. E. Knox, J. B. Cross, 
 V. Bakken, C. Adamo, J. Jaramillo, R. Gomperts, R. E. Stratmann, 
 O. Yazyev, A. J. Austin, R. Cammi, C. Pomelli, J. W. Ochterski, 
 R. L. Martin, K. Morokuma, V. G. Zakrzewski, G. A. Voth, 
 P. Salvador, J. J. Dannenberg, S. Dapprich, A. D. Daniels, 
 O. Farkas, J. B. Foresman, J. V. Ortiz, J. Cioslowski, 
 and D. J. Fox, Gaussian, Inc., Wallingford CT, 2013.
 
 ******************************************
 Gaussian 09:  EM64L-G09RevD.01 24-Apr-2013
                30-Apr-2014 
 ******************************************
 %chk=gaussian.chk
 %mem=1GB
 %nproc=2
 Will use up to    2 processors via shared memory.
 %nproclinda=1
 Will use up to    1 processors via Linda.
 --------------------------------------------------------
 #HF/6-31g* nosymm iop(2/12=3,3/33=1) guess=only pop=full
 --------------------------------------------------------
 1/38=1/1;
 2/12=3,15=1,17=6,18=5,40=1/2;
 3/5=1,6=6,7=1,11=9,16=1,25=1,30=1,33=1,89=1/1,2;
 4//1;
 6/7=3,28=1/1;
 99/5=2/99;
 -------
 [0] [0]
 -------
 Symbolic Z-matrix:
 Charge =  2 Multiplicity = 1
 c                    -2.44792   0.32776   0.22302 
 n                    -1.18748   0.15256   0.09276 
 h                    -2.8246    0.95302   1.02959 
 h                    -3.13383  -0.15057  -0.47251 
 h                    -0.79617  -0.42708  -0.65333 
 h                    -0.51317   0.58385   0.72912 
 c                    -2.44791   0.32776   0.223 
 n                    -1.18747   0.15256   0.09277 
 h                    -2.82465   0.95312   1.02948 
 h                    -3.13391  -0.1507   -0.47237 
 h                    -0.79617  -0.42699  -0.65336 
 h                    -0.51309   0.58368   0.72917 
 
                          Input orientation:                          
 ---------------------------------------------------------------------
 Center     Atomic      Atomic             Coordinates (Angstroms)
 Number     Number       Type             X           Y           Z
 ---------------------------------------------------------------------
      1          6           0       -2.447919    0.327759    0.223019
      2          7           0       -1.187477    0.152564    0.092759
      3          1           0       -2.824600    0.953021    1.029585
      4          1           0       -3.133828   -0.150567   -0.472512
      5          1           0       -0.796168   -0.427083   -0.653332
      6          1           0       -0.513168    0.583849    0.729122
      7          6           0       -2.447910    0.327758    0.223002
      8          7           0       -1.187472    0.152563    0.092770
      9          1           0       -2.824649    0.953119    1.029477
     10          1           0       -3.133910   -0.150703   -0.472366
     11          1           0       -0.796165   -0.426992   -0.653365
     12          1           0       -0.513094    0.583677    0.729167
 ---------------------------------------------------------------------
                    Distance matrix (angstroms):
                    1          2          3          4          5
     1  C    0.000000
     2  N    1.279208   0.000000
     3  H    1.087838   2.049036   0.000000
     4  H    1.087672   2.049317   1.889398   0.000000
     5  H    2.016446   1.022626   2.975136   2.360891   0.000000
     6  H    2.016180   1.022574   2.359934   2.975088   1.735872
     7  C    0.000000   1.279197   1.087854   1.087666   2.016431
     8  N    1.279213   0.000000   2.049036   2.049325   1.022631
     9  H    1.087831   2.049063   0.000000   1.889361   2.975153
    10  H    1.087690   2.049375   1.889375   0.000000   2.360969
    11  H    2.016429   1.022600   2.975114   2.360886   0.000000
    12  H    2.016241   1.022578   2.360027   2.975129   1.735820
                    6          7          8          9         10
     6  H    0.000000
     7  C    2.016176   0.000000
     8  N    1.022564   1.279202   0.000000
     9  H    2.359982   1.087847   2.049063   0.000000
    10  H    2.975136   1.087685   2.049384   1.889339   0.000000
    11  H    1.735845   2.016414   1.022605   2.975132   2.360963
    12  H    0.000000   2.016237   1.022568   2.360076   2.975177
                   11         12
    11  H    0.000000
    12  H    1.735793   0.000000
 Symmetry turned off by external request.
 Stoichiometry    C2H8N2(2+)
 Framework group  C1[X(C2H8N2)]
 Deg. of freedom    30
 Full point group                 C1      NOp   1
 Rotational constants (GHZ):     76.1762531     15.6056416     12.9522276
 Standard basis: 6-31G(d) (6D, 7F)
                         Coordinates in L301:                         
 ---------------------------------------------------------------------
 Center     Atomic      Atomic             Coordinates (Angstroms)
 Number     Number       Type             X           Y           Z
 ---------------------------------------------------------------------
      1          6           0       -2.447919    0.327759    0.223019
      2          7           0       -1.187477    0.152564    0.092759
      3          1           0       -2.824600    0.953021    1.029585
      4          1           0       -3.133828   -0.150567   -0.472512
      5          1           0       -0.796168   -0.427083   -0.653332
      6          1           0       -0.513168    0.583849    0.729122
      7          6           0       -2.447910    0.327758    0.223002
      8          7           0       -1.187472    0.152563    0.092770
      9          1           0       -2.824649    0.953119    1.029477
     10          1           0       -3.133910   -0.150703   -0.472366
     11          1           0       -0.796165   -0.426992   -0.653365
     12          1           0       -0.513094    0.583677    0.729167
 ---------------------------------------------------------------------
 FixB: optimizing general contractions.
 Ernie: Thresh=  0.10000D-02 Tol=  0.10000D-05 Strict=F.
 IA=     1 ShT= 0 ShC= 0 NL=   1 NS=   0.
 IA=     1 L=0 SC=0 ISt=    0 NBk=    0 NP=    0 IndPr=    0.
 IA=     1 ShT= 1 ShC= 0 NL=   2 NS=   1.
 IA=     1 L=1 SC=0 ISt=    0 NBk=    0 NP=    0 IndPr=    0.
 IA=     1 ShT= 2 ShC= 2 NL=   1 NS=   1.
 IA=     1 L=2 SC=2 ISt=    0 NBk=    0 NP=    0 IndPr=    0.
 IA=     2 ShT= 0 ShC= 0 NL=   1 NS=   0.
 IA=     2 L=0 SC=0 ISt=    0 NBk=    0 NP=    0 IndPr=    0.
 IA=     2 ShT= 1 ShC= 0 NL=   2 NS=   1.
 IA=     2 L=1 SC=0 ISt=    0 NBk=    0 NP=    0 IndPr=    0.
 IA=     2 ShT= 2 ShC= 2 NL=   1 NS=   1.
 IA=     2 L=2 SC=2 ISt=    0 NBk=    0 NP=    0 IndPr=    0.
 IA=     3 ShT= 0 ShC= 0 NL=   2 NS=   1.
 IA=     3 L=0 SC=0 ISt=    0 NBk=    0 NP=    0 IndPr=    0.
 IA=     4 ShT= 0 ShC= 0 NL=   2 NS=   1.
 IA=     4 L=0 SC=0 ISt=    0 NBk=    0 NP=    0 IndPr=    0.
 IA=     5 ShT= 0 ShC= 0 NL=   2 NS=   1.
 IA=     5 L=0 SC=0 ISt=    0 NBk=    0 NP=    0 IndPr=    0.
 IA=     6 ShT= 0 ShC= 0 NL=   2 NS=   1.
 IA=     6 L=0 SC=0 ISt=    0 NBk=    0 NP=    0 IndPr=    0.
 IA=     7 ShT= 0 ShC= 0 NL=   1 NS=   0.
 IA=     7 L=0 SC=0 ISt=    0 NBk=    0 NP=    0 IndPr=    0.
 IA=     7 ShT= 1 ShC= 0 NL=   2 NS=   1.
 IA=     7 L=1 SC=0 ISt=    0 NBk=    0 NP=    0 IndPr=    0.
 IA=     7 ShT= 2 ShC= 2 NL=   1 NS=   1.
 IA=     7 L=2 SC=2 ISt=    0 NBk=    0 NP=    0 IndPr=    0.
 IA=     8 ShT= 0 ShC= 0 NL=   1 NS=   0.
 IA=     8 L=0 SC=0 ISt=    0 NBk=    0 NP=    0 IndPr=    0.
 IA=     8 ShT= 1 ShC= 0 NL=   2 NS=   1.
 IA=     8 L=1 SC=0 ISt=    0 NBk=    0 NP=    0 IndPr=    0.
 IA=     8 ShT= 2 ShC= 2 NL=   1 NS=   1.
 IA=     8 L=2 SC=2 ISt=    0 NBk=    0 NP=    0 IndPr=    0.
 IA=     9 ShT= 0 ShC= 0 NL=   2 NS=   1.
 IA=     9 L=0 SC=0 ISt=    0 NBk=    0 NP=    0 IndPr=    0.
 IA=    10 ShT= 0 ShC= 0 NL=   2 NS=   1.
 IA=    10 L=0 SC=0 ISt=    0 NBk=    0 NP=    0 IndPr=    0.
 IA=    11 ShT= 0 ShC= 0 NL=   2 NS=   1.
 IA=    11 L=0 SC=0 ISt=    0 NBk=    0 NP=    0 IndPr=    0.
 IA=    12 ShT= 0 ShC= 0 NL=   2 NS=   1.
 IA=    12 L=0 SC=0 ISt=    0 NBk=    0 NP=    0 IndPr=    0.
 LdAtmC:  AtmChg=     6.000000     7.000000     1.000000     1.000000     1.000000
 LdAtmC:  AtmChg=     1.000000     6.000000     7.000000     1.000000     1.000000
 LdAtmC:  AtmChg=     1.000000     1.000000
 AtZEff=     -3.6000000     -4.5500000     -1.0000000     -1.0000000     -1.0000000
 AtZEff=     -1.0000000     -3.6000000     -4.5500000     -1.0000000     -1.0000000
 AtZEff=     -1.0000000     -1.0000000
    76 basis functions,   144 primitive gaussians,    76 cartesian basis functions
    16 alpha electrons       16 beta electrons
       nuclear repulsion energy   3224026.8725655880 Hartrees.
 IS=     1 IAt=     1 ISR=     1 T=0 IP=      1 IndIP=      1 IndIPD=      0 C=  5.363452D-01  0.000000D+00                             NZ=T
 IS=     1 IAt=     1 ISR=     1 T=0 IP=      2 IndIP=      2 IndIPD=      1 C=  9.894521D-01  0.000000D+00                             NZ=T
 IS=     1 IAt=     1 ISR=     1 T=0 IP=      3 IndIP=      3 IndIPD=      2 C=  1.597283D+00  0.000000D+00                             NZ=T
 IS=     1 IAt=     1 ISR=     1 T=0 IP=      4 IndIP=      4 IndIPD=      3 C=  2.079187D+00  0.000000D+00                             NZ=T
 IS=     1 IAt=     1 ISR=     1 T=0 IP=      5 IndIP=      5 IndIPD=      4 C=  1.774174D+00  0.000000D+00                             NZ=T
 IS=     1 IAt=     1 ISR=     1 T=0 IP=      6 IndIP=      6 IndIPD=      5 C=  6.125797D-01  0.000000D+00                             NZ=T
 IS=     2 IAt=     1 ISR=     2 T=1 IP=      1 IndIP=      7 IndIPD=      0 C= -3.995564D-01  1.296082D+00                             NZ=T
 IS=     2 IAt=     1 ISR=     2 T=1 IP=      2 IndIP=      8 IndIPD=      1 C= -1.841552D-01  9.937536D-01                             NZ=T
 IS=     2 IAt=     1 ISR=     2 T=1 IP=      3 IndIP=      9 IndIPD=      2 C=  5.163903D-01  4.959527D-01                             NZ=T
 IS=     3 IAt=     1 ISR=     3 T=1 IP=      1 IndIP=     10 IndIPD=      0 C=  1.876179D-01  1.541276D-01                             NZ=T
 IS=     4 IAt=     1 ISR=     4 T=2 IP=      1 IndIP=     11 IndIPD=      1 C=  0.000000D+00  0.000000D+00  1.113825D+00  0.000000D+00 NZ=T
 IS=     5 IAt=     2 ISR=     1 T=0 IP=      1 IndIP=     12 IndIPD=      0 C=  6.789979D-01  0.000000D+00                             NZ=T
 IS=     5 IAt=     2 ISR=     1 T=0 IP=      2 IndIP=     13 IndIPD=      1 C=  1.250431D+00  0.000000D+00                             NZ=T
 IS=     5 IAt=     2 ISR=     1 T=0 IP=      3 IndIP=     14 IndIPD=      2 C=  2.020356D+00  0.000000D+00                             NZ=T
 IS=     5 IAt=     2 ISR=     1 T=0 IP=      4 IndIP=     15 IndIPD=      3 C=  2.644212D+00  0.000000D+00                             NZ=T
 IS=     5 IAt=     2 ISR=     1 T=0 IP=      5 IndIP=     16 IndIPD=      4 C=  2.265005D+00  0.000000D+00                             NZ=T
 IS=     5 IAt=     2 ISR=     1 T=0 IP=      6 IndIP=     17 IndIPD=      5 C=  7.791879D-01  0.000000D+00                             NZ=T
 IS=     6 IAt=     2 ISR=     2 T=1 IP=      1 IndIP=     18 IndIPD=      0 C= -5.158747D-01  2.068052D+00                             NZ=T
 IS=     6 IAt=     2 ISR=     2 T=1 IP=      2 IndIP=     19 IndIPD=      1 C= -2.550231D-01  1.610011D+00                             NZ=T
 IS=     6 IAt=     2 ISR=     2 T=1 IP=      3 IndIP=     20 IndIPD=      2 C=  6.727345D-01  7.644904D-01                             NZ=T
 IS=     7 IAt=     2 ISR=     3 T=1 IP=      1 IndIP=     21 IndIPD=      0 C=  2.226950D-01  2.050881D-01                             NZ=T
 IS=     8 IAt=     2 ISR=     4 T=2 IP=      1 IndIP=     22 IndIPD=      2 C=  0.000000D+00  0.000000D+00  1.113825D+00  0.000000D+00 NZ=T
 IS=     9 IAt=     3 ISR=     1 T=0 IP=      1 IndIP=     23 IndIPD=      0 C=  2.149354D-01  0.000000D+00                             NZ=T
 IS=     9 IAt=     3 ISR=     1 T=0 IP=      2 IndIP=     24 IndIPD=      1 C=  3.645712D-01  0.000000D+00                             NZ=T
 IS=     9 IAt=     3 ISR=     1 T=0 IP=      3 IndIP=     25 IndIPD=      2 C=  4.150514D-01  0.000000D+00                             NZ=T
 IS=    10 IAt=     3 ISR=     2 T=0 IP=      1 IndIP=     26 IndIPD=      0 C=  1.813806D-01  0.000000D+00                             NZ=T
 IS=    11 IAt=     4 ISR=     1 T=0 IP=      1 IndIP=     27 IndIPD=      0 C=  2.149354D-01  0.000000D+00                             NZ=T
 IS=    11 IAt=     4 ISR=     1 T=0 IP=      2 IndIP=     28 IndIPD=      1 C=  3.645712D-01  0.000000D+00                             NZ=T
 IS=    11 IAt=     4 ISR=     1 T=0 IP=      3 IndIP=     29 IndIPD=      2 C=  4.150514D-01  0.000000D+00                             NZ=T
 IS=    12 IAt=     4 ISR=     2 T=0 IP=      1 IndIP=     30 IndIPD=      0 C=  1.813806D-01  0.000000D+00                             NZ=T
 IS=    13 IAt=     5 ISR=     1 T=0 IP=      1 IndIP=     31 IndIPD=      0 C=  2.149354D-01  0.000000D+00                             NZ=T
 IS=    13 IAt=     5 ISR=     1 T=0 IP=      2 IndIP=     32 IndIPD=      1 C=  3.645712D-01  0.000000D+00                             NZ=T
 IS=    13 IAt=     5 ISR=     1 T=0 IP=      3 IndIP=     33 IndIPD=      2 C=  4.150514D-01  0.000000D+00                             NZ=T
 IS=    14 IAt=     5 ISR=     2 T=0 IP=      1 IndIP=     34 IndIPD=      0 C=  1.813806D-01  0.000000D+00                             NZ=T
 IS=    15 IAt=     6 ISR=     1 T=0 IP=      1 IndIP=     35 IndIPD=      0 C=  2.149354D-01  0.000000D+00                             NZ=T
 IS=    15 IAt=     6 ISR=     1 T=0 IP=      2 IndIP=     36 IndIPD=      1 C=  3.645712D-01  0.000000D+00                             NZ=T
 IS=    15 IAt=     6 ISR=     1 T=0 IP=      3 IndIP=     37 IndIPD=      2 C=  4.150514D-01  0.000000D+00                             NZ=T
 IS=    16 IAt=     6 ISR=     2 T=0 IP=      1 IndIP=     38 IndIPD=      0 C=  1.813806D-01  0.000000D+00                             NZ=T
 IS=    17 IAt=     7 ISR=     1 T=0 IP=      1 IndIP=     39 IndIPD=      0 C=  5.363452D-01  0.000000D+00                             NZ=T
 IS=    17 IAt=     7 ISR=     1 T=0 IP=      2 IndIP=     40 IndIPD=      1 C=  9.894521D-01  0.000000D+00                             NZ=T
 IS=    17 IAt=     7 ISR=     1 T=0 IP=      3 IndIP=     41 IndIPD=      2 C=  1.597283D+00  0.000000D+00                             NZ=T
 IS=    17 IAt=     7 ISR=     1 T=0 IP=      4 IndIP=     42 IndIPD=      3 C=  2.079187D+00  0.000000D+00                             NZ=T
 IS=    17 IAt=     7 ISR=     1 T=0 IP=      5 IndIP=     43 IndIPD=      4 C=  1.774174D+00  0.000000D+00                             NZ=T
 IS=    17 IAt=     7 ISR=     1 T=0 IP=      6 IndIP=     44 IndIPD=      5 C=  6.125797D-01  0.000000D+00                             NZ=T
 IS=    18 IAt=     7 ISR=     2 T=1 IP=      1 IndIP=     45 IndIPD=      0 C= -3.995564D-01  1.296082D+00                             NZ=T
 IS=    18 IAt=     7 ISR=     2 T=1 IP=      2 IndIP=     46 IndIPD=      1 C= -1.841552D-01  9.937536D-01                             NZ=T
 IS=    18 IAt=     7 ISR=     2 T=1 IP=      3 IndIP=     47 IndIPD=      2 C=  5.163903D-01  4.959527D-01                             NZ=T
 IS=    19 IAt=     7 ISR=     3 T=1 IP=      1 IndIP=     48 IndIPD=      0 C=  1.876179D-01  1.541276D-01                             NZ=T
 IS=    20 IAt=     7 ISR=     4 T=2 IP=      1 IndIP=     49 IndIPD=      3 C=  0.000000D+00  0.000000D+00  1.113825D+00  0.000000D+00 NZ=T
 IS=    21 IAt=     8 ISR=     1 T=0 IP=      1 IndIP=     50 IndIPD=      0 C=  6.789979D-01  0.000000D+00                             NZ=T
 IS=    21 IAt=     8 ISR=     1 T=0 IP=      2 IndIP=     51 IndIPD=      1 C=  1.250431D+00  0.000000D+00                             NZ=T
 IS=    21 IAt=     8 ISR=     1 T=0 IP=      3 IndIP=     52 IndIPD=      2 C=  2.020356D+00  0.000000D+00                             NZ=T
 IS=    21 IAt=     8 ISR=     1 T=0 IP=      4 IndIP=     53 IndIPD=      3 C=  2.644212D+00  0.000000D+00                             NZ=T
 IS=    21 IAt=     8 ISR=     1 T=0 IP=      5 IndIP=     54 IndIPD=      4 C=  2.265005D+00  0.000000D+00                             NZ=T
 IS=    21 IAt=     8 ISR=     1 T=0 IP=      6 IndIP=     55 IndIPD=      5 C=  7.791879D-01  0.000000D+00                             NZ=T
 IS=    22 IAt=     8 ISR=     2 T=1 IP=      1 IndIP=     56 IndIPD=      0 C= -5.158747D-01  2.068052D+00                             NZ=T
 IS=    22 IAt=     8 ISR=     2 T=1 IP=      2 IndIP=     57 IndIPD=      1 C= -2.550231D-01  1.610011D+00                             NZ=T
 IS=    22 IAt=     8 ISR=     2 T=1 IP=      3 IndIP=     58 IndIPD=      2 C=  6.727345D-01  7.644904D-01                             NZ=T
 IS=    23 IAt=     8 ISR=     3 T=1 IP=      1 IndIP=     59 IndIPD=      0 C=  2.226950D-01  2.050881D-01                             NZ=T
 IS=    24 IAt=     8 ISR=     4 T=2 IP=      1 IndIP=     60 IndIPD=      4 C=  0.000000D+00  0.000000D+00  1.113825D+00  0.000000D+00 NZ=T
 IS=    25 IAt=     9 ISR=     1 T=0 IP=      1 IndIP=     61 IndIPD=      0 C=  2.149354D-01  0.000000D+00                             NZ=T
 IS=    25 IAt=     9 ISR=     1 T=0 IP=      2 IndIP=     62 IndIPD=      1 C=  3.645712D-01  0.000000D+00                             NZ=T
 IS=    25 IAt=     9 ISR=     1 T=0 IP=      3 IndIP=     63 IndIPD=      2 C=  4.150514D-01  0.000000D+00                             NZ=T
 IS=    26 IAt=     9 ISR=     2 T=0 IP=      1 IndIP=     64 IndIPD=      0 C=  1.813806D-01  0.000000D+00                             NZ=T
 IS=    27 IAt=    10 ISR=     1 T=0 IP=      1 IndIP=     65 IndIPD=      0 C=  2.149354D-01  0.000000D+00                             NZ=T
 IS=    27 IAt=    10 ISR=     1 T=0 IP=      2 IndIP=     66 IndIPD=      1 C=  3.645712D-01  0.000000D+00                             NZ=T
 IS=    27 IAt=    10 ISR=     1 T=0 IP=      3 IndIP=     67 IndIPD=      2 C=  4.150514D-01  0.000000D+00                             NZ=T
 IS=    28 IAt=    10 ISR=     2 T=0 IP=      1 IndIP=     68 IndIPD=      0 C=  1.813806D-01  0.000000D+00                             NZ=T
 IS=    29 IAt=    11 ISR=     1 T=0 IP=      1 IndIP=     69 IndIPD=      0 C=  2.149354D-01  0.000000D+00                             NZ=T
 IS=    29 IAt=    11 ISR=     1 T=0 IP=      2 IndIP=     70 IndIPD=      1 C=  3.645712D-01  0.000000D+00                             NZ=T
 IS=    29 IAt=    11 ISR=     1 T=0 IP=      3 IndIP=     71 IndIPD=      2 C=  4.150514D-01  0.000000D+00                             NZ=T
 IS=    30 IAt=    11 ISR=     2 T=0 IP=      1 IndIP=     72 IndIPD=      0 C=  1.813806D-01  0.000000D+00                             NZ=T
 IS=    31 IAt=    12 ISR=     1 T=0 IP=      1 IndIP=     73 IndIPD=      0 C=  2.149354D-01  0.000000D+00                             NZ=T
 IS=    31 IAt=    12 ISR=     1 T=0 IP=      2 IndIP=     74 IndIPD=      1 C=  3.645712D-01  0.000000D+00                             NZ=T
 IS=    31 IAt=    12 ISR=     1 T=0 IP=      3 IndIP=     75 IndIPD=      2 C=  4.150514D-01  0.000000D+00                             NZ=T
 IS=    32 IAt=    12 ISR=     2 T=0 IP=      1 IndIP=     76 IndIPD=      0 C=  1.813806D-01  0.000000D+00                             NZ=T
 NAtoms=   12 NActive=   12 NUniq=   12 SFac= 1.00D+00 NAtFMM=   60 NAOKFM=F Big=F
 Integral buffers will be    131072 words long.
 Raffenetti 1 integral format.
 Two-electron integral symmetry is turned off.
 NPDir=0 NMtPBC=     1 NCelOv=     1 NCel=       1 NClECP=     1 NCelD=      1
         NCelK=      1 NCelE2=     1 NClLst=     1 CellRange=     0.0.
 One-electron integrals computed using PRISM.
 Entering OneElI...
 Calculate overlap and kinetic energy integrals
    NBasis =  76  MinDer = 0  MaxDer = 0
 Requested accuracy = 0.1000D-12
 PrsmSu:  NPrtUS=   2 ThrOK=T IAlg=1 NPAlg=2 LenDen=           0.
 Prism:   IPart=     0 DynPar=F LinDyn=F Incr=           2.
 PRISM was handed    67062960 working-precision words and   528 shell-pairs
 PRISM was handed    67062960 working-precision words and   528 shell-pairs
 IPart=  1 NShTot=         264 NBatch=          26 AvBLen=        10.2
 IPart=  0 NShTot=         264 NBatch=          26 AvBLen=        10.2
 PrSmSu:  NxtVal=              5.
 *** Overlap *** 
                1             2             3             4             5 
      1  0.100000D+01
      2  0.219059D+00  0.100000D+01
      3  0.000000D+00  0.000000D+00  0.100000D+01
      4  0.000000D+00  0.000000D+00  0.000000D+00  0.100000D+01
      5  0.000000D+00  0.000000D+00  0.000000D+00  0.000000D+00  0.100000D+01
      6  0.184261D+00  0.812273D+00  0.000000D+00  0.000000D+00  0.000000D+00
      7  0.000000D+00  0.000000D+00  0.569754D+00  0.000000D+00  0.000000D+00
      8  0.000000D+00  0.000000D+00  0.000000D+00  0.569754D+00  0.000000D+00
      9  0.000000D+00  0.000000D+00  0.000000D+00  0.000000D+00  0.569754D+00
     10  0.791027D-01  0.710235D+00  0.000000D+00  0.000000D+00  0.000000D+00
     11  0.791027D-01  0.710235D+00  0.000000D+00  0.000000D+00  0.000000D+00
     12  0.791027D-01  0.710235D+00  0.000000D+00  0.000000D+00  0.000000D+00
     13  0.000000D+00  0.000000D+00  0.000000D+00  0.000000D+00  0.000000D+00
     14  0.000000D+00  0.000000D+00  0.000000D+00  0.000000D+00  0.000000D+00
     15  0.000000D+00  0.000000D+00  0.000000D+00  0.000000D+00  0.000000D+00
     16  0.280745D-05  0.197662D-01  0.418493D-01 -0.581685D-02 -0.432488D-02
     17  0.116850D-01  0.180343D+00  0.270307D+00 -0.375714D-01 -0.279346D-01
     18 -0.268988D-01 -0.229541D+00 -0.293133D+00  0.544368D-01  0.404743D-01
     19  0.373880D-02  0.319051D-01  0.544368D-01  0.909455D-01 -0.562573D-02
     20  0.277983D-02  0.237217D-01  0.404743D-01 -0.562573D-02  0.943292D-01
     21  0.660233D-01  0.367946D+00  0.289551D+00 -0.402462D-01 -0.299234D-01
     22 -0.138371D+00 -0.567508D+00 -0.206472D+00  0.653933D-01  0.486205D-01
     23  0.192329D-01  0.788809D-01  0.653933D-01  0.254911D+00 -0.675802D-02
     24  0.142999D-01  0.586487D-01  0.486205D-01 -0.675802D-02  0.258975D+00
     25  0.706994D-01  0.367320D+00  0.417944D+00 -0.924747D-01 -0.687558D-01
     26  0.303230D-02  0.118160D+00  0.173523D+00  0.102636D-01 -0.179326D-01
     27  0.243616D-02  0.115964D+00  0.169190D+00 -0.235166D-01  0.807886D-02
     28 -0.166116D-01 -0.611663D-01 -0.909523D-01 -0.197443D+00  0.124766D-01
     29 -0.123508D-01 -0.454777D-01 -0.676238D-01  0.124766D-01 -0.204947D+00
     30  0.171671D-02  0.632118D-02  0.124766D-01  0.204046D-01  0.284867D-01
     31  0.330524D-01  0.275051D+00 -0.128368D+00  0.213081D+00  0.274868D+00
     32  0.924440D-01  0.477118D+00 -0.920362D-01  0.152773D+00  0.197072D+00
     33  0.330765D-01  0.275156D+00 -0.233852D+00 -0.163079D+00 -0.237132D+00
     34  0.924627D-01  0.477194D+00 -0.167619D+00 -0.116891D+00 -0.169970D+00
     35  0.109409D-03  0.130489D-01  0.219738D-01 -0.100419D-01 -0.116584D-01
     36  0.186083D-01  0.135381D+00  0.109216D+00 -0.499110D-01 -0.579454D-01
     37  0.109639D-03  0.130637D-01  0.257685D-01  0.341080D-02  0.674066D-02
     38  0.186194D-01  0.135444D+00  0.127990D+00  0.169412D-01  0.334804D-01
     39  0.100000D+01  0.219059D+00  0.178770D-04 -0.281212D-05 -0.329419D-04
     40  0.219059D+00  0.100000D+01  0.842309D-05 -0.132498D-05 -0.155212D-04
     41 -0.178770D-04 -0.842309D-05  0.100000D+01  0.000000D+00  0.000000D+00
     42  0.281212D-05  0.132498D-05  0.000000D+00  0.100000D+01  0.000000D+00
     43  0.329419D-04  0.155212D-04  0.000000D+00  0.000000D+00  0.100000D+01
     44  0.184261D+00  0.812273D+00  0.393598D-05  0.000000D+00 -0.725281D-05
     45 -0.245542D-05 -0.837262D-05  0.569754D+00  0.000000D+00  0.000000D+00
     46  0.000000D+00  0.131704D-05  0.000000D+00  0.569754D+00  0.000000D+00
     47  0.452459D-05  0.154282D-04  0.000000D+00  0.000000D+00  0.569754D+00
     48  0.791027D-01  0.710235D+00 -0.804087D-05 -0.136689D-05 -0.160121D-04
     49  0.791027D-01  0.710235D+00  0.868951D-05  0.126486D-05 -0.160121D-04
     50  0.791027D-01  0.710235D+00  0.868951D-05 -0.136689D-05  0.148169D-04
     51  0.000000D+00  0.000000D+00  0.227916D-05 -0.144889D-04  0.000000D+00
     52  0.000000D+00  0.000000D+00  0.266987D-04  0.000000D+00 -0.144889D-04
     53  0.000000D+00  0.000000D+00  0.000000D+00  0.266987D-04  0.227916D-05
     54  0.280723D-05  0.197658D-01  0.418486D-01 -0.581674D-02 -0.432445D-02
     55  0.116847D-01  0.180341D+00  0.270304D+00 -0.375709D-01 -0.279320D-01
     56 -0.268981D-01 -0.229539D+00 -0.293132D+00  0.544364D-01  0.404706D-01
     57  0.373871D-02  0.319048D-01  0.544364D-01  0.909441D-01 -0.562521D-02
     58  0.277953D-02  0.237195D-01  0.404706D-01 -0.562521D-02  0.943284D-01
     59  0.660227D-01  0.367944D+00  0.289551D+00 -0.402461D-01 -0.299209D-01
     60 -0.138371D+00 -0.567507D+00 -0.206475D+00  0.653934D-01  0.486166D-01
     61  0.192328D-01  0.788806D-01  0.653934D-01  0.254909D+00 -0.675746D-02
     62  0.142986D-01  0.586436D-01  0.486166D-01 -0.675746D-02  0.258974D+00
     63  0.706979D-01  0.367318D+00  0.417944D+00 -0.924742D-01 -0.687498D-01
     64  0.303222D-02  0.118158D+00  0.173521D+00  0.102635D-01 -0.179309D-01
     65  0.243598D-02  0.115962D+00  0.169188D+00 -0.235162D-01  0.807817D-02
     66 -0.166112D-01 -0.611660D-01 -0.909521D-01 -0.197441D+00  0.124755D-01
     67 -0.123496D-01 -0.454737D-01 -0.676182D-01  0.124755D-01 -0.204947D+00
     68  0.171653D-02  0.632062D-02  0.124755D-01  0.204027D-01  0.284866D-01
     69  0.330534D-01  0.275056D+00 -0.128387D+00  0.213119D+00  0.274836D+00
     70  0.924448D-01  0.477121D+00 -0.920487D-01  0.152798D+00  0.197047D+00
     71  0.330738D-01  0.275144D+00 -0.233868D+00 -0.163117D+00 -0.237070D+00
     72  0.924606D-01  0.477185D+00 -0.167636D+00 -0.116922D+00 -0.169931D+00
     73  0.109424D-03  0.130499D-01  0.219755D-01 -0.100415D-01 -0.116597D-01
     74  0.186090D-01  0.135385D+00  0.109219D+00 -0.499066D-01 -0.579494D-01
     75  0.109587D-03  0.130603D-01  0.257627D-01  0.340761D-02  0.673949D-02
     76  0.186168D-01  0.135430D+00  0.127981D+00  0.169280D-01  0.334797D-01
                6             7             8             9            10 
      6  0.100000D+01
      7  0.000000D+00  0.100000D+01
      8  0.000000D+00  0.000000D+00  0.100000D+01
      9  0.000000D+00  0.000000D+00  0.000000D+00  0.100000D+01
     10  0.629936D+00  0.000000D+00  0.000000D+00  0.000000D+00  0.100000D+01
     11  0.629936D+00  0.000000D+00  0.000000D+00  0.000000D+00  0.333333D+00
     12  0.629936D+00  0.000000D+00  0.000000D+00  0.000000D+00  0.333333D+00
     13  0.000000D+00  0.000000D+00  0.000000D+00  0.000000D+00  0.000000D+00
     14  0.000000D+00  0.000000D+00  0.000000D+00  0.000000D+00  0.000000D+00
     15  0.000000D+00  0.000000D+00  0.000000D+00  0.000000D+00  0.000000D+00
     16  0.559841D-01  0.106682D+00 -0.148283D-01 -0.110250D-01  0.538286D-01
     17  0.316329D+00  0.501275D+00 -0.696749D-01 -0.518039D-01  0.331825D+00
     18 -0.185984D+00 -0.113257D+00  0.421650D-01  0.313501D-01 -0.373708D+00
     19  0.258509D-01  0.421650D-01  0.184238D+00 -0.435751D-02  0.800484D-01
     20  0.192204D-01  0.313501D-01 -0.435751D-02  0.186859D+00  0.595167D-01
     21  0.571893D+00  0.623172D+00 -0.866179D-01 -0.644012D-01  0.378562D+00
     22 -0.555884D+00 -0.375463D-01  0.841931D-01  0.625983D-01 -0.425079D+00
     23  0.772651D-01  0.841931D-01  0.556478D+00 -0.870086D-02  0.912399D-01
     24  0.574473D-01  0.625983D-01 -0.870086D-02  0.561711D+00  0.678377D-01
     25  0.372102D+00  0.411090D+00 -0.835764D-01 -0.621398D-01  0.467503D+00
     26  0.280858D+00  0.453846D+00 -0.366454D-01 -0.469023D-01  0.193935D+00
     27  0.280054D+00  0.452547D+00 -0.629018D-01 -0.271119D-01  0.186943D+00
     28 -0.223996D-01 -0.133010D-01 -0.159687D+00  0.374066D-02 -0.124475D+00
     29 -0.166543D-01 -0.988943D-02  0.374066D-02 -0.161937D+00 -0.925481D-01
     30  0.231487D-02  0.374066D-02  0.165028D-01  0.225085D-01  0.201340D-01
     31  0.377904D+00 -0.178386D+00  0.296107D+00  0.381968D+00  0.159028D+00
     32  0.705507D+00 -0.201628D+00  0.334688D+00  0.431735D+00  0.361738D+00
     33  0.377971D+00 -0.324885D+00 -0.226562D+00 -0.329443D+00  0.253392D+00
     34  0.705583D+00 -0.367189D+00 -0.256064D+00 -0.372340D+00  0.384162D+00
     35  0.932918D-01  0.192286D+00 -0.878739D-01 -0.102019D+00  0.196028D-01
     36  0.301901D+00  0.378342D+00 -0.172900D+00 -0.200733D+00  0.135052D+00
     37  0.933402D-01  0.225349D+00  0.298279D-01  0.589480D-01  0.258279D-01
     38  0.301996D+00  0.443305D+00  0.586773D-01  0.115962D+00  0.152475D+00
     39  0.184261D+00  0.245542D-05  0.000000D+00 -0.452459D-05  0.791027D-01
     40  0.812273D+00  0.837262D-05 -0.131704D-05 -0.154282D-04  0.710235D+00
     41 -0.393598D-05  0.569754D+00  0.000000D+00  0.000000D+00  0.804087D-05
     42  0.000000D+00  0.000000D+00  0.569754D+00  0.000000D+00  0.136689D-05
     43  0.725281D-05  0.000000D+00  0.000000D+00  0.569754D+00  0.160121D-04
     44  0.100000D+01  0.690820D-05 -0.108668D-05 -0.127297D-04  0.629936D+00
     45 -0.690820D-05  0.100000D+01  0.000000D+00  0.000000D+00 -0.415599D-05
     46  0.108668D-05  0.000000D+00  0.100000D+01  0.000000D+00  0.113064D-05
     47  0.127297D-04  0.000000D+00  0.000000D+00  0.100000D+01  0.132446D-04
     48  0.629936D+00  0.415599D-05 -0.113064D-05 -0.132446D-04  0.100000D+01
     49  0.629936D+00  0.718763D-05  0.000000D+00 -0.132446D-04  0.333333D+00
     50  0.629936D+00  0.718763D-05 -0.113064D-05 -0.765823D-05  0.333333D+00
     51  0.000000D+00  0.000000D+00 -0.262548D-05  0.000000D+00  0.000000D+00
     52  0.000000D+00  0.483796D-05  0.000000D+00 -0.262548D-05  0.000000D+00
     53  0.000000D+00  0.000000D+00  0.483796D-05  0.000000D+00  0.000000D+00
     54  0.559837D-01  0.106682D+00 -0.148283D-01 -0.110240D-01  0.538274D-01
     55  0.316327D+00  0.501275D+00 -0.696747D-01 -0.517995D-01  0.331822D+00
     56 -0.185984D+00 -0.113259D+00  0.421651D-01  0.313475D-01 -0.373707D+00
     57  0.258509D-01  0.421651D-01  0.184237D+00 -0.435715D-02  0.800478D-01
     58  0.192188D-01  0.313475D-01 -0.435715D-02  0.186858D+00  0.595114D-01
     59  0.571891D+00  0.623172D+00 -0.866178D-01 -0.643958D-01  0.378561D+00
     60 -0.555884D+00 -0.375517D-01  0.841934D-01  0.625934D-01 -0.425080D+00
     61  0.772650D-01  0.841934D-01  0.556475D+00 -0.870017D-02  0.912398D-01
     62  0.574426D-01  0.625934D-01 -0.870017D-02  0.561710D+00  0.678320D-01
     63  0.372101D+00  0.411090D+00 -0.835764D-01 -0.621347D-01  0.467504D+00
     64  0.280856D+00  0.453845D+00 -0.366453D-01 -0.468983D-01  0.193933D+00
     65  0.280052D+00  0.452546D+00 -0.629016D-01 -0.271096D-01  0.186940D+00
     66 -0.223996D-01 -0.133013D-01 -0.159687D+00  0.374037D-02 -0.124475D+00
     67 -0.166530D-01 -0.988884D-02  0.374037D-02 -0.161938D+00 -0.925407D-01
     68  0.231468D-02  0.374037D-02  0.165014D-01  0.225085D-01  0.201323D-01
     69  0.377907D+00 -0.178410D+00  0.296156D+00  0.381920D+00  0.159041D+00
     70  0.705511D+00 -0.201655D+00  0.334741D+00  0.431680D+00  0.361743D+00
     71  0.377963D+00 -0.324918D+00 -0.226622D+00 -0.329367D+00  0.253410D+00
     72  0.705574D+00 -0.367229D+00 -0.256133D+00 -0.372258D+00  0.384162D+00
     73  0.932949D-01  0.192293D+00 -0.878664D-01 -0.102027D+00  0.196046D-01
     74  0.301907D+00  0.378350D+00 -0.172883D+00 -0.200744D+00  0.135056D+00
     75  0.933292D-01  0.225331D+00  0.298044D-01  0.589463D-01  0.258216D-01
     76  0.301974D+00  0.443290D+00  0.586337D-01  0.115964D+00  0.152462D+00
               11            12            13            14            15 
     11  0.100000D+01
     12  0.333333D+00  0.100000D+01
     13  0.000000D+00  0.000000D+00  0.100000D+01
     14  0.000000D+00  0.000000D+00  0.000000D+00  0.100000D+01
     15  0.000000D+00  0.000000D+00  0.000000D+00  0.000000D+00  0.100000D+01
     16  0.191145D-02  0.145407D-02 -0.127451D-01 -0.947611D-02  0.131713D-02
     17  0.719064D-01  0.696166D-01 -0.638072D-01 -0.474412D-01  0.659410D-02
     18 -0.105742D+00 -0.101600D+00  0.910812D-01  0.677197D-01 -0.119281D-01
     19 -0.134071D-01  0.141219D-01  0.159067D+00 -0.119281D-01 -0.164387D-01
     20  0.109278D-01 -0.103964D-01 -0.119281D-01  0.166242D+00 -0.231068D-01
     21  0.254145D+00  0.253049D+00 -0.305431D-01 -0.227091D-01  0.315645D-02
     22 -0.440686D+00 -0.438786D+00  0.251137D-01  0.186723D-01 -0.547327D-02
     23  0.290974D-01  0.609891D-01  0.192990D+00 -0.547327D-02 -0.199444D-01
     24  0.455424D-01  0.214377D-01 -0.547327D-02  0.196282D+00 -0.272822D-01
     25  0.193935D+00  0.186943D+00 -0.124475D+00 -0.925481D-01  0.201340D-01
     26  0.911767D-01  0.367116D-01  0.320907D-01 -0.284463D-01 -0.331639D-02
     27  0.367116D-01  0.935295D-01 -0.368802D-01  0.248853D-01 -0.345894D-02
     28  0.320907D-01 -0.368802D-01 -0.311784D+00  0.222807D-01  0.413263D-01
     29 -0.284463D-01  0.248853D-01  0.222807D-01 -0.325185D+00  0.579719D-01
     30 -0.331639D-02 -0.345894D-02  0.413263D-01  0.579719D-01  0.838356D-01
     31  0.230459D+00  0.304912D+00 -0.116998D+00 -0.150923D+00  0.250521D+00
     32  0.378684D+00  0.396348D+00 -0.277569D-01 -0.358054D-01  0.594342D-01
     33  0.184043D+00  0.257206D+00  0.163065D+00  0.237111D+00  0.165352D+00
     34  0.367715D+00  0.385066D+00  0.386723D-01  0.562331D-01  0.392148D-01
     35  0.643965D-02  0.764836D-02 -0.131695D-01 -0.152894D-01  0.698719D-02
     36  0.981650D-01  0.101552D+00 -0.369044D-01 -0.428450D-01  0.195800D-01
     37  0.336946D-02  0.453314D-02  0.524064D-02  0.103569D-01  0.137088D-02
     38  0.895947D-01  0.928529D-01  0.146730D-01  0.289978D-01  0.383825D-02
     39  0.791027D-01  0.791027D-01  0.000000D+00  0.000000D+00  0.000000D+00
     40  0.710235D+00  0.710235D+00  0.000000D+00  0.000000D+00  0.000000D+00
     41 -0.868951D-05 -0.868951D-05 -0.227916D-05 -0.266987D-04  0.000000D+00
     42 -0.126486D-05  0.136689D-05  0.144889D-04  0.000000D+00 -0.266987D-04
     43  0.160121D-04 -0.148169D-04  0.000000D+00  0.144889D-04 -0.227916D-05
     44  0.629936D+00  0.629936D+00  0.000000D+00  0.000000D+00  0.000000D+00
     45 -0.718763D-05 -0.718763D-05  0.000000D+00 -0.483796D-05  0.000000D+00
     46  0.000000D+00  0.113064D-05  0.262548D-05  0.000000D+00 -0.483796D-05
     47  0.132446D-04  0.765823D-05  0.000000D+00  0.262548D-05  0.000000D+00
     48  0.333333D+00  0.333333D+00  0.000000D+00  0.000000D+00  0.000000D+00
     49  0.100000D+01  0.333333D+00  0.000000D+00  0.000000D+00  0.000000D+00
     50  0.333333D+00  0.100000D+01  0.000000D+00  0.000000D+00  0.000000D+00
     51  0.000000D+00  0.000000D+00  0.100000D+01  0.000000D+00  0.000000D+00
     52  0.000000D+00  0.000000D+00  0.000000D+00  0.100000D+01  0.000000D+00
     53  0.000000D+00  0.000000D+00  0.000000D+00  0.000000D+00  0.100000D+01
     54  0.191140D-02  0.145394D-02 -0.127448D-01 -0.947511D-02  0.131699D-02
     55  0.719053D-01  0.696150D-01 -0.638067D-01 -0.474369D-01  0.659350D-02
     56 -0.105741D+00 -0.101598D+00  0.910808D-01  0.677138D-01 -0.119270D-01
     57 -0.134069D-01  0.141216D-01  0.159065D+00 -0.119270D-01 -0.164371D-01
     58  0.109268D-01 -0.103955D-01 -0.119270D-01  0.166241D+00 -0.231066D-01
     59  0.254143D+00  0.253047D+00 -0.305431D-01 -0.227072D-01  0.315619D-02
     60 -0.440685D+00 -0.438784D+00  0.251141D-01  0.186710D-01 -0.547284D-02
     61  0.290972D-01  0.609888D-01  0.192989D+00 -0.547284D-02 -0.199426D-01
     62  0.455384D-01  0.214358D-01 -0.547284D-02  0.196282D+00 -0.272822D-01
     63  0.193933D+00  0.186940D+00 -0.124475D+00 -0.925407D-01  0.201323D-01
     64  0.911751D-01  0.367107D-01  0.320904D-01 -0.284437D-01 -0.331608D-02
     65  0.367107D-01  0.935283D-01 -0.368796D-01  0.248832D-01 -0.345864D-02
     66  0.320904D-01 -0.368796D-01 -0.311782D+00  0.222788D-01  0.413225D-01
     67 -0.284437D-01  0.248832D-01  0.222788D-01 -0.325186D+00  0.579717D-01
     68 -0.331608D-02 -0.345864D-02  0.413225D-01  0.579717D-01  0.838348D-01
     69  0.230499D+00  0.304869D+00 -0.117034D+00 -0.150926D+00  0.250532D+00
     70  0.378695D+00  0.396339D+00 -0.277650D-01 -0.358055D-01  0.594360D-01
     71  0.184070D+00  0.257133D+00  0.163121D+00  0.237076D+00  0.165355D+00
     72  0.367716D+00  0.385045D+00  0.386872D-01  0.562270D-01  0.392169D-01
     73  0.643939D-02  0.764939D-02 -0.131691D-01 -0.152914D-01  0.698724D-02
     74  0.981660D-01  0.101557D+00 -0.369013D-01 -0.428481D-01  0.195790D-01
     75  0.336788D-02  0.453201D-02  0.523569D-02  0.103550D-01  0.136965D-02
     76  0.895828D-01  0.928428D-01  0.146620D-01  0.289981D-01  0.383557D-02
               16            17            18            19            20 
     16  0.100000D+01
     17  0.222216D+00  0.100000D+01
     18  0.000000D+00  0.000000D+00  0.100000D+01
     19  0.000000D+00  0.000000D+00  0.000000D+00  0.100000D+01
     20  0.000000D+00  0.000000D+00  0.000000D+00  0.000000D+00  0.100000D+01
     21  0.171869D+00  0.775507D+00  0.000000D+00  0.000000D+00  0.000000D+00
     22  0.000000D+00  0.000000D+00  0.519296D+00  0.000000D+00  0.000000D+00
     23  0.000000D+00  0.000000D+00  0.000000D+00  0.519296D+00  0.000000D+00
     24  0.000000D+00  0.000000D+00  0.000000D+00  0.000000D+00  0.519296D+00
     25  0.504134D-01  0.636041D+00  0.000000D+00  0.000000D+00  0.000000D+00
     26  0.504134D-01  0.636041D+00  0.000000D+00  0.000000D+00  0.000000D+00
     27  0.504134D-01  0.636041D+00  0.000000D+00  0.000000D+00  0.000000D+00
     28  0.000000D+00  0.000000D+00  0.000000D+00  0.000000D+00  0.000000D+00
     29  0.000000D+00  0.000000D+00  0.000000D+00  0.000000D+00  0.000000D+00
     30  0.000000D+00  0.000000D+00  0.000000D+00  0.000000D+00  0.000000D+00
     31  0.501623D-04  0.485155D-02 -0.797993D-02  0.390172D-02  0.456643D-02
     32  0.134059D-01  0.953521D-01 -0.680004D-01  0.332482D-01  0.389125D-01
     33  0.500441D-04  0.484457D-02 -0.947336D-02 -0.147541D-02 -0.275131D-02
     34  0.133972D-01  0.953003D-01 -0.807997D-01 -0.125840D-01 -0.234663D-01
     35  0.333290D-01  0.255089D+00  0.122978D+00 -0.182167D+00 -0.234477D+00
     36  0.787209D-01  0.420739D+00  0.745613D-01 -0.110448D+00 -0.142163D+00
     37  0.333365D-01  0.255124D+00  0.211950D+00  0.135562D+00  0.200023D+00
     38  0.787256D-01  0.420760D+00  0.128492D+00  0.821827D-01  0.121261D+00
     39  0.280796D-05  0.116858D-01 -0.269003D-01  0.373901D-02  0.277966D-02
     40  0.197672D-01  0.180349D+00 -0.229547D+00  0.319058D-01  0.237195D-01
     41  0.418511D-01  0.270314D+00 -0.293138D+00  0.544379D-01  0.404703D-01
     42 -0.581709D-02 -0.375723D-01  0.544379D-01  0.909487D-01 -0.562518D-02
     43 -0.432455D-02 -0.279320D-01  0.404703D-01 -0.562518D-02  0.943334D-01
     44  0.559850D-01  0.316333D+00 -0.185986D+00  0.258511D-01  0.192183D-01
     45  0.106683D+00  0.501279D+00 -0.113255D+00  0.421650D-01  0.313463D-01
     46 -0.148284D-01 -0.696752D-01  0.421650D-01  0.184241D+00 -0.435699D-02
     47 -0.110238D-01 -0.517981D-01  0.313463D-01 -0.435699D-02  0.186862D+00
     48  0.538315D-01  0.331833D+00 -0.373714D+00  0.800501D-01  0.595110D-01
     49  0.191157D-02  0.719091D-01 -0.105745D+00 -0.134076D-01  0.109269D-01
     50  0.145403D-02  0.696185D-01 -0.101602D+00  0.141222D-01 -0.103957D-01
     51 -0.127458D-01 -0.638085D-01  0.910827D-01  0.159073D+00 -0.119269D-01
     52 -0.947550D-02 -0.474366D-01  0.677128D-01 -0.119269D-01  0.166249D+00
     53  0.131705D-02  0.659346D-02 -0.119269D-01 -0.164373D-01 -0.231078D-01
     54  0.100000D+01  0.222216D+00  0.141099D-04 -0.121637D-05  0.250572D-04
     55  0.222216D+00  0.100000D+01  0.645620D-05  0.000000D+00  0.114653D-04
     56 -0.141099D-04 -0.645620D-05  0.100000D+01  0.000000D+00  0.000000D+00
     57  0.121637D-05  0.000000D+00  0.000000D+00  0.100000D+01  0.000000D+00
     58 -0.250572D-04 -0.114653D-04  0.000000D+00  0.000000D+00  0.100000D+01
     59  0.171869D+00  0.775507D+00  0.262085D-05  0.000000D+00  0.465426D-05
     60 -0.167882D-05 -0.601913D-05  0.519296D+00  0.000000D+00  0.000000D+00
     61  0.000000D+00  0.000000D+00  0.000000D+00  0.519296D+00  0.000000D+00
     62 -0.298135D-05 -0.106891D-04  0.000000D+00  0.000000D+00  0.519296D+00
     63  0.504134D-01  0.636041D+00 -0.731244D-05  0.000000D+00  0.854394D-05
     64  0.504134D-01  0.636041D+00  0.481115D-05  0.000000D+00  0.854394D-05
     65  0.504134D-01  0.636041D+00  0.481115D-05  0.000000D+00 -0.129859D-04
     66  0.000000D+00  0.000000D+00  0.000000D+00 -0.104993D-04  0.000000D+00
     67  0.000000D+00  0.000000D+00 -0.186454D-04  0.000000D+00 -0.104993D-04
     68  0.000000D+00  0.000000D+00  0.000000D+00 -0.186454D-04  0.000000D+00
     69  0.501508D-04  0.485087D-02 -0.797903D-02  0.390164D-02  0.456525D-02
     70  0.134050D-01  0.953470D-01 -0.679987D-01  0.332505D-01  0.389059D-01
     71  0.500196D-04  0.484313D-02 -0.947088D-02 -0.147562D-02 -0.274977D-02
     72  0.133954D-01  0.952895D-01 -0.807938D-01 -0.125882D-01 -0.234576D-01
     73  0.333327D-01  0.255106D+00  0.122988D+00 -0.182153D+00 -0.234505D+00
     74  0.787232D-01  0.420749D+00  0.745637D-01 -0.110433D+00 -0.142173D+00
     75  0.333358D-01  0.255121D+00  0.211971D+00  0.135507D+00  0.200034D+00
     76  0.787252D-01  0.420758D+00  0.128505D+00  0.821497D-01  0.121269D+00
               21            22            23            24            25 
     21  0.100000D+01
     22  0.000000D+00  0.100000D+01
     23  0.000000D+00  0.000000D+00  0.100000D+01
     24  0.000000D+00  0.000000D+00  0.000000D+00  0.100000D+01
     25  0.670250D+00  0.000000D+00  0.000000D+00  0.000000D+00  0.100000D+01
     26  0.670250D+00  0.000000D+00  0.000000D+00  0.000000D+00  0.333333D+00
     27  0.670250D+00  0.000000D+00  0.000000D+00  0.000000D+00  0.333333D+00
     28  0.000000D+00  0.000000D+00  0.000000D+00  0.000000D+00  0.000000D+00
     29  0.000000D+00  0.000000D+00  0.000000D+00  0.000000D+00  0.000000D+00
     30  0.000000D+00  0.000000D+00  0.000000D+00  0.000000D+00  0.000000D+00
     31  0.646460D-01 -0.140714D+00  0.688008D-01  0.805219D-01  0.162961D-01
     32  0.249721D+00 -0.307377D+00  0.150289D+00  0.175893D+00  0.125970D+00
     33  0.646029D-01 -0.167180D+00 -0.260372D-01 -0.485535D-01  0.219654D-01
     34  0.249627D+00 -0.365298D+00 -0.568927D-01 -0.106092D+00  0.143662D+00
     35  0.403307D+00  0.211538D+00 -0.313351D+00 -0.403329D+00  0.195170D+00
     36  0.700416D+00  0.206068D+00 -0.305249D+00 -0.392901D+00  0.387221D+00
     37  0.403332D+00  0.364548D+00  0.233163D+00  0.344033D+00  0.300958D+00
     38  0.700441D+00  0.355112D+00  0.227128D+00  0.335128D+00  0.409161D+00
     39  0.660246D-01 -0.138373D+00  0.192332D-01  0.142983D-01  0.707031D-01
     40  0.367951D+00 -0.567512D+00  0.788814D-01  0.586421D-01  0.367327D+00
     41  0.289554D+00 -0.206469D+00  0.653934D-01  0.486148D-01  0.417949D+00
     42 -0.402465D-01  0.653934D-01  0.254915D+00 -0.675722D-02 -0.924763D-01
     43 -0.299201D-01  0.486148D-01 -0.675722D-02  0.258980D+00 -0.687489D-01
     44  0.571899D+00 -0.555885D+00  0.772652D-01  0.574406D-01  0.372106D+00
     45  0.623173D+00 -0.375381D-01  0.841926D-01  0.625906D-01  0.411090D+00
     46 -0.866180D-01  0.841926D-01  0.556483D+00 -0.869978D-02 -0.835766D-01
     47 -0.643937D-01  0.625906D-01 -0.869978D-02  0.561718D+00 -0.621326D-01
     48  0.378567D+00 -0.425080D+00  0.912402D-01  0.678299D-01  0.467506D+00
     49  0.254149D+00 -0.440690D+00  0.290976D-01  0.455374D-01  0.193940D+00
     50  0.253053D+00 -0.438789D+00  0.609895D-01  0.214353D-01  0.186946D+00
     51 -0.305431D-01  0.251132D-01  0.192992D+00 -0.547259D-02 -0.124476D+00
     52 -0.227064D-01  0.186697D-01 -0.547259D-02  0.196284D+00 -0.925378D-01
     53  0.315608D-02 -0.547259D-02 -0.199422D-01 -0.272826D-01  0.201319D-01
     54  0.171869D+00  0.167882D-05  0.000000D+00  0.298135D-05  0.504134D-01
     55  0.775507D+00  0.601913D-05  0.000000D+00  0.106891D-04  0.636041D+00
     56 -0.262085D-05  0.519296D+00  0.000000D+00  0.000000D+00  0.731244D-05
     57  0.000000D+00  0.000000D+00  0.519296D+00  0.000000D+00  0.000000D+00
     58 -0.465426D-05  0.000000D+00  0.000000D+00  0.519296D+00 -0.854394D-05
     59  0.100000D+01  0.504693D-05  0.000000D+00  0.896265D-05  0.670250D+00
     60 -0.504693D-05  0.100000D+01  0.000000D+00  0.000000D+00 -0.251313D-05
     61  0.000000D+00  0.000000D+00  0.100000D+01  0.000000D+00  0.000000D+00
     62 -0.896265D-05  0.000000D+00  0.000000D+00  0.100000D+01 -0.949728D-05
     63  0.670250D+00  0.251313D-05  0.000000D+00  0.949728D-05  0.100000D+01
     64  0.670250D+00  0.534798D-05  0.000000D+00  0.949728D-05  0.333333D+00
     65  0.670250D+00  0.534798D-05  0.000000D+00  0.446297D-05  0.333333D+00
     66  0.000000D+00  0.000000D+00 -0.245505D-05  0.000000D+00  0.000000D+00
     67  0.000000D+00 -0.435984D-05  0.000000D+00 -0.245505D-05  0.000000D+00
     68  0.000000D+00  0.000000D+00 -0.435984D-05  0.000000D+00  0.000000D+00
     69  0.646418D-01 -0.140709D+00  0.688047D-01  0.805073D-01  0.162945D-01
     70  0.249712D+00 -0.307375D+00  0.150302D+00  0.175866D+00  0.125966D+00
     71  0.645940D-01 -0.167164D+00 -0.260453D-01 -0.485343D-01  0.219603D-01
     72  0.249607D+00 -0.365285D+00 -0.569137D-01 -0.106056D+00  0.143651D+00
     73  0.403319D+00  0.211546D+00 -0.313312D+00 -0.403360D+00  0.195185D+00
     74  0.700428D+00  0.206073D+00 -0.305207D+00 -0.392925D+00  0.387231D+00
     75  0.403330D+00  0.364586D+00  0.233069D+00  0.344055D+00  0.300989D+00
     76  0.700439D+00  0.355150D+00  0.227037D+00  0.335151D+00  0.409166D+00
               26            27            28            29            30 
     26  0.100000D+01
     27  0.333333D+00  0.100000D+01
     28  0.000000D+00  0.000000D+00  0.100000D+01
     29  0.000000D+00  0.000000D+00  0.000000D+00  0.100000D+01
     30  0.000000D+00  0.000000D+00  0.000000D+00  0.000000D+00  0.100000D+01
     31  0.580215D-02  0.702117D-02 -0.116790D-01 -0.136687D-01  0.668320D-02
     32  0.932628D-01  0.970623D-01 -0.364014D-01 -0.426029D-01  0.208303D-01
     33  0.297372D-02  0.414332D-02  0.525045D-02  0.979091D-02  0.152487D-02
     34  0.844140D-01  0.880629D-01  0.163799D-01  0.305447D-01  0.475714D-02
     35  0.259290D+00  0.336664D+00 -0.137755D+00 -0.177311D+00  0.262651D+00
     36  0.400512D+00  0.416550D+00 -0.285539D-01 -0.367531D-01  0.544424D-01
     37  0.206730D+00  0.283515D+00  0.176651D+00  0.260649D+00  0.166710D+00
     38  0.389631D+00  0.405545D+00  0.366124D-01  0.540217D-01  0.345521D-01
     39  0.303247D-02  0.243613D-02 -0.166124D-01 -0.123500D-01  0.171659D-02
     40  0.118163D+00  0.115967D+00 -0.611671D-01 -0.454729D-01  0.632051D-02
     41  0.173527D+00  0.169193D+00 -0.909532D-01 -0.676166D-01  0.124753D-01
     42  0.102640D-01 -0.235170D-01 -0.197449D+00  0.124753D-01  0.204028D-01
     43 -0.179309D-01  0.807830D-02  0.124753D-01 -0.204955D+00  0.284878D-01
     44  0.280861D+00  0.280057D+00 -0.223996D-01 -0.166523D-01  0.231459D-02
     45  0.453848D+00  0.452549D+00 -0.133006D-01 -0.988794D-02  0.374018D-02
     46 -0.366456D-01 -0.629021D-01 -0.159689D+00  0.374018D-02  0.165009D-01
     47 -0.468970D-01 -0.271088D-01  0.374018D-02 -0.161939D+00  0.225087D-01
     48  0.193940D+00  0.186946D+00 -0.124476D+00 -0.925378D-01  0.201319D-01
     49  0.911803D-01  0.367126D-01  0.320916D-01 -0.284436D-01 -0.331608D-02
     50  0.367126D-01  0.935339D-01 -0.368806D-01  0.248833D-01 -0.345865D-02
     51  0.320916D-01 -0.368806D-01 -0.311791D+00  0.222781D-01  0.413225D-01
     52 -0.284436D-01  0.248833D-01  0.222781D-01 -0.325196D+00  0.579740D-01
     53 -0.331608D-02 -0.345865D-02  0.413225D-01  0.579740D-01  0.838401D-01
     54  0.504134D-01  0.504134D-01  0.000000D+00  0.000000D+00  0.000000D+00
     55  0.636041D+00  0.636041D+00  0.000000D+00  0.000000D+00  0.000000D+00
     56 -0.481115D-05 -0.481115D-05  0.000000D+00  0.186454D-04  0.000000D+00
     57  0.000000D+00  0.000000D+00  0.104993D-04  0.000000D+00  0.186454D-04
     58 -0.854394D-05  0.129859D-04  0.000000D+00  0.104993D-04  0.000000D+00
     59  0.670250D+00  0.670250D+00  0.000000D+00  0.000000D+00  0.000000D+00
     60 -0.534798D-05 -0.534798D-05  0.000000D+00  0.435984D-05  0.000000D+00
     61  0.000000D+00  0.000000D+00  0.245505D-05  0.000000D+00  0.435984D-05
     62 -0.949728D-05 -0.446297D-05  0.000000D+00  0.245505D-05  0.000000D+00
     63  0.333333D+00  0.333333D+00  0.000000D+00  0.000000D+00  0.000000D+00
     64  0.100000D+01  0.333333D+00  0.000000D+00  0.000000D+00  0.000000D+00
     65  0.333333D+00  0.100000D+01  0.000000D+00  0.000000D+00  0.000000D+00
     66  0.000000D+00  0.000000D+00  0.100000D+01  0.000000D+00  0.000000D+00
     67  0.000000D+00  0.000000D+00  0.000000D+00  0.100000D+01  0.000000D+00
     68  0.000000D+00  0.000000D+00  0.000000D+00  0.000000D+00  0.100000D+01
     69  0.580212D-02  0.701912D-02 -0.116791D-01 -0.136656D-01  0.668228D-02
     70  0.932603D-01  0.970538D-01 -0.364050D-01 -0.425969D-01  0.208293D-01
     71  0.297323D-02  0.414121D-02  0.525142D-02  0.978580D-02  0.152469D-02
     72  0.844057D-01  0.880501D-01  0.163860D-01  0.305347D-01  0.475750D-02
     73  0.259273D+00  0.336706D+00 -0.137745D+00 -0.177334D+00  0.262642D+00
     74  0.400515D+00  0.416564D+00 -0.285504D-01 -0.367559D-01  0.544377D-01
     75  0.206676D+00  0.283532D+00  0.176598D+00  0.260692D+00  0.166653D+00
     76  0.389619D+00  0.405548D+00  0.366017D-01  0.540312D-01  0.345406D-01
               31            32            33            34            35 
     31  0.100000D+01
     32  0.658292D+00  0.100000D+01
     33  0.115357D-01  0.123638D+00  0.100000D+01
     34  0.123638D+00  0.357725D+00  0.658292D+00  0.100000D+01
     35  0.267672D-04  0.105502D-01  0.114118D-02  0.485174D-01  0.100000D+01
     36  0.105502D-01  0.781662D-01  0.485174D-01  0.200875D+00  0.658292D+00
     37  0.114712D-02  0.486198D-01  0.267759D-04  0.105516D-01  0.221139D-01
     38  0.486198D-01  0.201137D+00  0.105516D-01  0.781726D-01  0.160381D+00
     39  0.330500D-01  0.924423D-01  0.330773D-01  0.924633D-01  0.109422D-03
     40  0.275041D+00  0.477111D+00  0.275160D+00  0.477196D+00  0.130497D-01
     41 -0.128366D+00 -0.920369D-01 -0.233858D+00 -0.167622D+00  0.219751D-01
     42  0.213073D+00  0.152771D+00 -0.163081D+00 -0.116891D+00 -0.100425D-01
     43  0.274862D+00  0.197073D+00 -0.237130D+00 -0.169967D+00 -0.116589D-01
     44  0.377898D+00  0.705500D+00  0.377973D+00  0.705585D+00  0.932945D-01
     45 -0.178387D+00 -0.201631D+00 -0.324891D+00 -0.367195D+00  0.192291D+00
     46  0.296103D+00  0.334685D+00 -0.226563D+00 -0.256064D+00 -0.878763D-01
     47  0.381969D+00  0.431740D+00 -0.329437D+00 -0.372333D+00 -0.102020D+00
     48  0.159022D+00  0.361732D+00  0.253400D+00  0.384165D+00  0.196041D-01
     49  0.230449D+00  0.378678D+00  0.184045D+00  0.367717D+00  0.644013D-02
     50  0.304905D+00  0.396343D+00  0.257203D+00  0.385067D+00  0.764877D-02
     51 -0.116995D+00 -0.277571D-01  0.163069D+00  0.386729D-01 -0.131704D-01
     52 -0.150922D+00 -0.358064D-01  0.237113D+00  0.562328D-01 -0.152902D-01
     53  0.250514D+00  0.594345D-01  0.165351D+00  0.392139D-01  0.698759D-02
     54  0.501622D-04  0.134059D-01  0.500406D-04  0.133969D-01  0.333283D-01
     55  0.485155D-02  0.953521D-01  0.484437D-02  0.952988D-01  0.255085D+00
     56 -0.797996D-02 -0.680007D-01 -0.947298D-02 -0.807986D-01  0.122974D+00
     57  0.390172D-02  0.332482D-01 -0.147535D-02 -0.125838D-01 -0.182165D+00
     58  0.456638D-02  0.389121D-01 -0.275124D-02 -0.234664D-01 -0.234477D+00
     59  0.646460D-01  0.249721D+00  0.646017D-01  0.249624D+00  0.403304D+00
     60 -0.140714D+00 -0.307378D+00 -0.167178D+00 -0.365295D+00  0.211533D+00
     61  0.688008D-01  0.150289D+00 -0.260367D-01 -0.568920D-01 -0.313349D+00
     62  0.805210D-01  0.175891D+00 -0.485535D-01 -0.106093D+00 -0.403333D+00
     63  0.162961D-01  0.125971D+00  0.219645D-01  0.143660D+00  0.195166D+00
     64  0.580215D-02  0.932628D-01  0.297359D-02  0.844127D-01  0.259287D+00
     65  0.702107D-02  0.970619D-01  0.414320D-02  0.880616D-01  0.336664D+00
     66 -0.116791D-01 -0.364016D-01  0.525023D-02  0.163796D-01 -0.137750D+00
     67 -0.136686D-01 -0.426025D-01  0.979069D-02  0.305449D-01 -0.177308D+00
     68  0.668312D-02  0.208301D-01  0.152483D-02  0.475714D-02  0.262650D+00
     69  0.100000D+01  0.658292D+00  0.115376D-01  0.123646D+00  0.267641D-04
     70  0.658292D+00  0.100000D+01  0.123646D+00  0.357739D+00  0.105497D-01
     71  0.115369D-01  0.123643D+00  0.100000D+01  0.658292D+00  0.114070D-02
     72  0.123643D+00  0.357734D+00  0.658292D+00  0.100000D+01  0.485092D-01
     73  0.267711D-04  0.105508D-01  0.114121D-02  0.485180D-01  0.100000D+01
     74  0.105508D-01  0.781691D-01  0.485180D-01  0.200877D+00  0.658292D+00
     75  0.114654D-02  0.486098D-01  0.267685D-04  0.105504D-01  0.221186D-01
     76  0.486098D-01  0.201111D+00  0.105504D-01  0.781671D-01  0.160395D+00
               36            37            38            39            40 
     36  0.100000D+01
     37  0.160381D+00  0.100000D+01
     38  0.419910D+00  0.658292D+00  0.100000D+01
     39  0.186089D-01  0.109643D-03  0.186196D-01  0.100000D+01
     40  0.135384D+00  0.130639D-01  0.135445D+00  0.219059D+00  0.100000D+01
     41  0.109218D+00  0.257688D-01  0.127991D+00  0.000000D+00  0.000000D+00
     42 -0.499123D-01  0.341088D-02  0.169414D-01  0.000000D+00  0.000000D+00
     43 -0.579459D-01  0.674100D-02  0.334817D-01  0.000000D+00  0.000000D+00
     44  0.301906D+00  0.933410D-01  0.301998D+00  0.184261D+00  0.812273D+00
     45  0.378347D+00  0.225350D+00  0.443305D+00  0.000000D+00  0.000000D+00
     46 -0.172903D+00  0.298283D-01  0.586779D-01  0.000000D+00  0.000000D+00
     47 -0.200732D+00  0.589504D-01  0.115966D+00  0.000000D+00  0.000000D+00
     48  0.135055D+00  0.258283D-01  0.152476D+00  0.791027D-01  0.710235D+00
     49  0.981678D-01  0.336954D-02  0.895955D-01  0.791027D-01  0.710235D+00
     50  0.101555D+00  0.453334D-02  0.928539D-01  0.791027D-01  0.710235D+00
     51 -0.369052D-01  0.524076D-02  0.146731D-01  0.000000D+00  0.000000D+00
     52 -0.428452D-01  0.103574D-01  0.289989D-01  0.000000D+00  0.000000D+00
     53  0.195801D-01  0.137096D-02  0.383842D-02  0.000000D+00  0.000000D+00
     54  0.787204D-01  0.333379D-01  0.787265D-01  0.280773D-05  0.197668D-01
     55  0.420737D+00  0.255130D+00  0.420764D+00  0.116854D-01  0.180346D+00
     56  0.745598D-01  0.211955D+00  0.128492D+00 -0.268997D-01 -0.229544D+00
     57 -0.110447D+00  0.135567D+00  0.821836D-01  0.373892D-02  0.319055D-01
     58 -0.142164D+00  0.200025D+00  0.121260D+00  0.277936D-02  0.237173D-01
     59  0.700414D+00  0.403337D+00  0.700445D+00  0.660240D-01  0.367949D+00
     60  0.206064D+00  0.364549D+00  0.355111D+00 -0.138372D+00 -0.567511D+00
     61 -0.305247D+00  0.233166D+00  0.227130D+00  0.192330D-01  0.788811D-01
     62 -0.392905D+00  0.344031D+00  0.335125D+00  0.142971D-01  0.586371D-01
     63  0.387219D+00  0.300964D+00  0.409164D+00  0.707016D-01  0.367325D+00
     64  0.400510D+00  0.206736D+00  0.389635D+00  0.303239D-02  0.118161D+00
     65  0.416549D+00  0.283519D+00  0.405548D+00  0.243595D-02  0.115965D+00
     66 -0.285533D-01  0.176655D+00  0.366125D-01 -0.166120D-01 -0.611668D-01
     67 -0.367529D-01  0.260650D+00  0.540209D-01 -0.123487D-01 -0.454690D-01
     68  0.544428D-01  0.166712D+00  0.345519D-01  0.171641D-02  0.631995D-02
     69  0.105497D-01  0.114682D-02  0.486146D-01  0.330511D-01  0.275046D+00
     70  0.781639D-01  0.486146D-01  0.201124D+00  0.924430D-01  0.477114D+00
     71  0.485092D-01  0.267673D-04  0.105502D-01  0.330746D-01  0.275148D+00
     72  0.200854D+00  0.105502D-01  0.781663D-01  0.924612D-01  0.477187D+00
     73  0.658292D+00  0.221163D-01  0.160388D+00  0.109437D-03  0.130507D-01
     74  0.100000D+01  0.160388D+00  0.419921D+00  0.186096D-01  0.135388D+00
     75  0.160395D+00  0.100000D+01  0.658292D+00  0.109590D-03  0.130605D-01
     76  0.419931D+00  0.658292D+00  0.100000D+01  0.186170D-01  0.135431D+00
               41            42            43            44            45 
     41  0.100000D+01
     42  0.000000D+00  0.100000D+01
     43  0.000000D+00  0.000000D+00  0.100000D+01
     44  0.000000D+00  0.000000D+00  0.000000D+00  0.100000D+01
     45  0.569754D+00  0.000000D+00  0.000000D+00  0.000000D+00  0.100000D+01
     46  0.000000D+00  0.569754D+00  0.000000D+00  0.000000D+00  0.000000D+00
     47  0.000000D+00  0.000000D+00  0.569754D+00  0.000000D+00  0.000000D+00
     48  0.000000D+00  0.000000D+00  0.000000D+00  0.629936D+00  0.000000D+00
     49  0.000000D+00  0.000000D+00  0.000000D+00  0.629936D+00  0.000000D+00
     50  0.000000D+00  0.000000D+00  0.000000D+00  0.629936D+00  0.000000D+00
     51  0.000000D+00  0.000000D+00  0.000000D+00  0.000000D+00  0.000000D+00
     52  0.000000D+00  0.000000D+00  0.000000D+00  0.000000D+00  0.000000D+00
     53  0.000000D+00  0.000000D+00  0.000000D+00  0.000000D+00  0.000000D+00
     54  0.418503D-01 -0.581698D-02 -0.432411D-02  0.559846D-01  0.106683D+00
     55  0.270311D+00 -0.375718D-01 -0.279294D-01  0.316331D+00  0.501278D+00
     56 -0.293137D+00  0.544375D-01  0.404667D-01 -0.185985D+00 -0.113257D+00
     57  0.544375D-01  0.909473D-01 -0.562466D-02  0.258510D-01  0.421650D-01
     58  0.404667D-01 -0.562466D-02  0.943327D-01  0.192166D-01  0.313438D-01
     59  0.289553D+00 -0.402464D-01 -0.299176D-01  0.571896D+00  0.623173D+00
     60 -0.206472D+00  0.653934D-01  0.486109D-01 -0.555885D+00 -0.375435D-01
     61  0.653934D-01  0.254913D+00 -0.675666D-02  0.772651D-01  0.841929D-01
     62  0.486109D-01 -0.675666D-02  0.258980D+00  0.574358D-01  0.625856D-01
     63  0.417949D+00 -0.924757D-01 -0.687428D-01  0.372104D+00  0.411091D+00
     64  0.173525D+00  0.102638D-01 -0.179292D-01  0.280860D+00  0.453848D+00
     65  0.169191D+00 -0.235166D-01  0.807761D-02  0.280055D+00  0.452548D+00
     66 -0.909531D-01 -0.197447D+00  0.124742D-01 -0.223996D-01 -0.133009D-01
     67 -0.676109D-01  0.124742D-01 -0.204955D+00 -0.166510D-01 -0.988735D-02
     68  0.124742D-01  0.204008D-01  0.284876D-01  0.231440D-02  0.373989D-02
     69 -0.128385D+00  0.213110D+00  0.274830D+00  0.377901D+00 -0.178412D+00
     70 -0.920494D-01  0.152796D+00  0.197048D+00  0.705503D+00 -0.201658D+00
     71 -0.233875D+00 -0.163119D+00 -0.237068D+00  0.377965D+00 -0.324924D+00
     72 -0.167639D+00 -0.116922D+00 -0.169928D+00  0.705577D+00 -0.367235D+00
     73  0.219768D-01 -0.100421D-01 -0.116602D-01  0.932976D-01  0.192298D+00
     74  0.109222D+00 -0.499079D-01 -0.579498D-01  0.301912D+00  0.378355D+00
     75  0.257630D-01  0.340770D-02  0.673983D-02  0.933300D-01  0.225332D+00
     76  0.127981D+00  0.169282D-01  0.334810D-01  0.301976D+00  0.443290D+00
               46            47            48            49            50 
     46  0.100000D+01
     47  0.000000D+00  0.100000D+01
     48  0.000000D+00  0.000000D+00  0.100000D+01
     49  0.000000D+00  0.000000D+00  0.333333D+00  0.100000D+01
     50  0.000000D+00  0.000000D+00  0.333333D+00  0.333333D+00  0.100000D+01
     51  0.000000D+00  0.000000D+00  0.000000D+00  0.000000D+00  0.000000D+00
     52  0.000000D+00  0.000000D+00  0.000000D+00  0.000000D+00  0.000000D+00
     53  0.000000D+00  0.000000D+00  0.000000D+00  0.000000D+00  0.000000D+00
     54 -0.148284D-01 -0.110228D-01  0.538304D-01  0.191151D-02  0.145389D-02
     55 -0.696750D-01 -0.517937D-01  0.331830D+00  0.719079D-01  0.696169D-01
     56  0.421650D-01  0.313438D-01 -0.373713D+00 -0.105744D+00 -0.101600D+00
     57  0.184239D+00 -0.435663D-02  0.800495D-01 -0.134074D-01  0.141219D-01
     58 -0.435663D-02  0.186862D+00  0.595056D-01  0.109258D-01 -0.103947D-01
     59 -0.866179D-01 -0.643883D-01  0.378565D+00  0.254147D+00  0.253051D+00
     60  0.841929D-01  0.625856D-01 -0.425081D+00 -0.440689D+00 -0.438787D+00
     61  0.556481D+00 -0.869908D-02  0.912401D-01  0.290975D-01  0.609892D-01
     62 -0.869908D-02  0.561717D+00  0.678243D-01  0.455334D-01  0.214334D-01
     63 -0.835765D-01 -0.621275D-01  0.467508D+00  0.193938D+00  0.186943D+00
     64 -0.366455D-01 -0.468930D-01  0.193938D+00  0.911787D-01  0.367117D-01
     65 -0.629019D-01 -0.271065D-01  0.186943D+00  0.367117D-01  0.935327D-01
     66 -0.159688D+00  0.373989D-02 -0.124476D+00  0.320912D-01 -0.368800D-01
     67  0.373989D-02 -0.161939D+00 -0.925304D-01 -0.284410D-01  0.248812D-01
     68  0.164995D-01  0.225087D-01  0.201302D-01 -0.331577D-02 -0.345836D-02
     69  0.296151D+00  0.381921D+00  0.159036D+00  0.230489D+00  0.304862D+00
     70  0.334739D+00  0.431684D+00  0.361737D+00  0.378689D+00  0.396334D+00
     71 -0.226623D+00 -0.329361D+00  0.253418D+00  0.184072D+00  0.257131D+00
     72 -0.256133D+00 -0.372250D+00  0.384165D+00  0.367718D+00  0.385045D+00
     73 -0.878688D-01 -0.102028D+00  0.196059D-01  0.643987D-02  0.764981D-02
     74 -0.172886D+00 -0.200744D+00  0.135060D+00  0.981688D-01  0.101559D+00
     75  0.298048D-01  0.589487D-01  0.258219D-01  0.336796D-02  0.453221D-02
     76  0.586343D-01  0.115969D+00  0.152463D+00  0.895835D-01  0.928438D-01
               51            52            53            54            55 
     51  0.100000D+01
     52  0.000000D+00  0.100000D+01
     53  0.000000D+00  0.000000D+00  0.100000D+01
     54 -0.127455D-01 -0.947450D-02  0.131691D-02  0.100000D+01
     55 -0.638080D-01 -0.474323D-01  0.659285D-02  0.222216D+00  0.100000D+01
     56  0.910823D-01  0.677070D-01 -0.119258D-01  0.000000D+00  0.000000D+00
     57  0.159071D+00 -0.119258D-01 -0.164357D-01  0.000000D+00  0.000000D+00
     58 -0.119258D-01  0.166249D+00 -0.231077D-01  0.000000D+00  0.000000D+00
     59 -0.305431D-01 -0.227046D-01  0.315582D-02  0.171869D+00  0.775507D+00
     60  0.251136D-01  0.186684D-01 -0.547216D-02  0.000000D+00  0.000000D+00
     61  0.192991D+00 -0.547216D-02 -0.199405D-01  0.000000D+00  0.000000D+00
     62 -0.547216D-02  0.196285D+00 -0.272825D-01  0.000000D+00  0.000000D+00
     63 -0.124476D+00 -0.925304D-01  0.201302D-01  0.504134D-01  0.636041D+00
     64  0.320912D-01 -0.284410D-01 -0.331577D-02  0.504134D-01  0.636041D+00
     65 -0.368800D-01  0.248812D-01 -0.345836D-02  0.504134D-01  0.636041D+00
     66 -0.311789D+00  0.222763D-01  0.413187D-01  0.000000D+00  0.000000D+00
     67  0.222763D-01 -0.325196D+00  0.579739D-01  0.000000D+00  0.000000D+00
     68  0.413187D-01  0.579739D-01  0.838392D-01  0.000000D+00  0.000000D+00
     69 -0.117031D+00 -0.150925D+00  0.250525D+00  0.501507D-04  0.485087D-02
     70 -0.277652D-01 -0.358064D-01  0.594363D-01  0.134050D-01  0.953470D-01
     71  0.163126D+00  0.237078D+00  0.165353D+00  0.500161D-04  0.484292D-02
     72  0.386878D-01  0.562267D-01  0.392161D-01  0.133951D-01  0.952880D-01
     73 -0.131700D-01 -0.152922D-01  0.698764D-02  0.333320D-01  0.255103D+00
     74 -0.369021D-01 -0.428483D-01  0.195792D-01  0.787228D-01  0.420747D+00
     75  0.523581D-02  0.103555D-01  0.136973D-02  0.333372D-01  0.255127D+00
     76  0.146621D-01  0.289992D-01  0.383575D-02  0.787261D-01  0.420762D+00
               56            57            58            59            60 
     56  0.100000D+01
     57  0.000000D+00  0.100000D+01
     58  0.000000D+00  0.000000D+00  0.100000D+01
     59  0.000000D+00  0.000000D+00  0.000000D+00  0.100000D+01
     60  0.519296D+00  0.000000D+00  0.000000D+00  0.000000D+00  0.100000D+01
     61  0.000000D+00  0.519296D+00  0.000000D+00  0.000000D+00  0.000000D+00
     62  0.000000D+00  0.000000D+00  0.519296D+00  0.000000D+00  0.000000D+00
     63  0.000000D+00  0.000000D+00  0.000000D+00  0.670250D+00  0.000000D+00
     64  0.000000D+00  0.000000D+00  0.000000D+00  0.670250D+00  0.000000D+00
     65  0.000000D+00  0.000000D+00  0.000000D+00  0.670250D+00  0.000000D+00
     66  0.000000D+00  0.000000D+00  0.000000D+00  0.000000D+00  0.000000D+00
     67  0.000000D+00  0.000000D+00  0.000000D+00  0.000000D+00  0.000000D+00
     68  0.000000D+00  0.000000D+00  0.000000D+00  0.000000D+00  0.000000D+00
     69 -0.797905D-02  0.390164D-02  0.456520D-02  0.646418D-01 -0.140709D+00
     70 -0.679990D-01  0.332505D-01  0.389055D-01  0.249712D+00 -0.307376D+00
     71 -0.947050D-02 -0.147556D-02 -0.274970D-02  0.645927D-01 -0.167161D+00
     72 -0.807927D-01 -0.125880D-01 -0.234576D-01  0.249604D+00 -0.365282D+00
     73  0.122985D+00 -0.182150D+00 -0.234505D+00  0.403317D+00  0.211541D+00
     74  0.745623D-01 -0.110433D+00 -0.142174D+00  0.700426D+00  0.206069D+00
     75  0.211975D+00  0.135511D+00  0.200037D+00  0.403335D+00  0.364587D+00
     76  0.128505D+00  0.821506D-01  0.121268D+00  0.700443D+00  0.355149D+00
               61            62            63            64            65 
     61  0.100000D+01
     62  0.000000D+00  0.100000D+01
     63  0.000000D+00  0.000000D+00  0.100000D+01
     64  0.000000D+00  0.000000D+00  0.333333D+00  0.100000D+01
     65  0.000000D+00  0.000000D+00  0.333333D+00  0.333333D+00  0.100000D+01
     66  0.000000D+00  0.000000D+00  0.000000D+00  0.000000D+00  0.000000D+00
     67  0.000000D+00  0.000000D+00  0.000000D+00  0.000000D+00  0.000000D+00
     68  0.000000D+00  0.000000D+00  0.000000D+00  0.000000D+00  0.000000D+00
     69  0.688047D-01  0.805064D-01  0.162946D-01  0.580212D-02  0.701902D-02
     70  0.150302D+00  0.175864D+00  0.125966D+00  0.932603D-01  0.970535D-01
     71 -0.260447D-01 -0.485342D-01  0.219594D-01  0.297310D-02  0.414109D-02
     72 -0.569130D-01 -0.106057D+00  0.143649D+00  0.844043D-01  0.880489D-01
     73 -0.313310D+00 -0.403363D+00  0.195180D+00  0.259269D+00  0.336707D+00
     74 -0.305205D+00 -0.392929D+00  0.387229D+00  0.400513D+00  0.416563D+00
     75  0.233072D+00  0.344054D+00  0.300995D+00  0.206682D+00  0.283535D+00
     76  0.227039D+00  0.335148D+00  0.409169D+00  0.389622D+00  0.405551D+00
               66            67            68            69            70 
     66  0.100000D+01
     67  0.000000D+00  0.100000D+01
     68  0.000000D+00  0.000000D+00  0.100000D+01
     69 -0.116792D-01 -0.136654D-01  0.668221D-02  0.100000D+01
     70 -0.364051D-01 -0.425966D-01  0.208291D-01  0.658292D+00  0.100000D+01
     71  0.525120D-02  0.978559D-02  0.152465D-02  0.115387D-01  0.123651D+00
     72  0.163858D-01  0.305348D-01  0.475750D-02  0.123651D+00  0.357748D+00
     73 -0.137741D+00 -0.177331D+00  0.262641D+00  0.267680D-04  0.105503D-01
     74 -0.285498D-01 -0.367557D-01  0.544381D-01  0.105503D-01  0.781668D-01
     75  0.176602D+00  0.260694D+00  0.166656D+00  0.114623D-02  0.486046D-01
     76  0.366018D-01  0.540304D-01  0.345404D-01  0.486046D-01  0.201098D+00
               71            72            73            74            75 
     71  0.100000D+01
     72  0.658292D+00  0.100000D+01
     73  0.114074D-02  0.485098D-01  0.100000D+01
     74  0.485098D-01  0.200856D+00  0.658292D+00  0.100000D+01
     75  0.267598D-04  0.105490D-01  0.221210D-01  0.160402D+00  0.100000D+01
     76  0.105490D-01  0.781608D-01  0.160402D+00  0.419943D+00  0.658292D+00
               76 
     76  0.100000D+01
 *** Kinetic Energy *** 
                1             2             3             4             5 
      1  0.162076D+02
      2 -0.124757D+01  0.932246D+00
      3  0.000000D+00  0.000000D+00  0.217833D+01
      4  0.000000D+00  0.000000D+00  0.000000D+00  0.217833D+01
      5  0.000000D+00  0.000000D+00  0.000000D+00  0.000000D+00  0.217833D+01
      6  0.899505D-01  0.306718D+00  0.000000D+00  0.000000D+00  0.000000D+00
      7  0.000000D+00  0.000000D+00  0.376673D+00  0.000000D+00  0.000000D+00
      8  0.000000D+00  0.000000D+00  0.000000D+00  0.376673D+00  0.000000D+00
      9  0.000000D+00  0.000000D+00  0.000000D+00  0.000000D+00  0.376673D+00
     10 -0.524817D+00  0.520042D+00  0.000000D+00  0.000000D+00  0.000000D+00
     11 -0.524817D+00  0.520042D+00  0.000000D+00  0.000000D+00  0.000000D+00
     12 -0.524817D+00  0.520042D+00  0.000000D+00  0.000000D+00  0.000000D+00
     13  0.000000D+00  0.000000D+00  0.000000D+00  0.000000D+00  0.000000D+00
     14  0.000000D+00  0.000000D+00  0.000000D+00  0.000000D+00  0.000000D+00
     15  0.000000D+00  0.000000D+00  0.000000D+00  0.000000D+00  0.000000D+00
     16 -0.972540D-04 -0.277922D-01 -0.217030D-01  0.301661D-02  0.224288D-02
     17 -0.355162D-01 -0.192268D-01  0.948523D-01 -0.131840D-01 -0.980243D-02
     18  0.497717D-01 -0.103707D+00 -0.320620D+00  0.479656D-01  0.356628D-01
     19 -0.691803D-02  0.144147D-01  0.479656D-01  0.178011D-01 -0.495696D-02
     20 -0.514362D-02  0.107175D-01  0.356628D-01 -0.495696D-02  0.207825D-01
     21  0.844189D-02  0.696755D-01  0.143387D+00 -0.199300D-01 -0.148182D-01
     22 -0.737586D-01 -0.276115D+00 -0.251396D+00  0.531142D-01  0.394909D-01
     23  0.102521D-01  0.383786D-01  0.531142D-01  0.123351D+00 -0.548905D-02
     24  0.762252D-02  0.285349D-01  0.394909D-01 -0.548905D-02  0.126652D+00
     25 -0.643390D-01  0.229957D+00  0.545369D+00 -0.107635D+00 -0.800277D-01
     26 -0.182345D-01 -0.643141D-01 -0.173931D-01  0.342489D-01  0.179748D-02
     27 -0.178284D-01 -0.669066D-01 -0.243685D-01  0.338710D-02  0.261852D-01
     28  0.113182D-01 -0.722406D-01 -0.166805D+00 -0.171312D+00  0.200872D-01
     29  0.841515D-02 -0.537115D-01 -0.124021D+00  0.200872D-01 -0.183394D+00
     30 -0.116967D-02  0.746564D-02  0.200872D-01  0.177041D-01  0.254909D-01
     31 -0.348697D-01  0.431727D-01 -0.830135D-01  0.137796D+00  0.177752D+00
     32  0.242353D-01  0.114903D+00 -0.459189D-01  0.762217D-01  0.983234D-01
     33 -0.348708D-01  0.432542D-01 -0.151292D+00 -0.105505D+00 -0.153414D+00
     34  0.242460D-01  0.114940D+00 -0.836356D-01 -0.583242D-01 -0.848088D-01
     35 -0.780062D-03 -0.215594D-01 -0.259238D-01  0.118470D-01  0.137541D-01
     36 -0.441028D-02 -0.913444D-02  0.181155D-01 -0.827868D-02 -0.961132D-02
     37 -0.781461D-03 -0.215752D-01 -0.303845D-01 -0.402179D-02 -0.794815D-02
     38 -0.440946D-02 -0.912305D-02  0.212453D-01  0.281209D-02  0.555746D-02
     39  0.162076D+02 -0.124757D+01  0.148973D-03 -0.234340D-04 -0.274512D-03
     40 -0.124757D+01  0.932246D+00 -0.642348D-05  0.101043D-05  0.118365D-04
     41 -0.148973D-03  0.642348D-05  0.217833D+01  0.000000D+00  0.000000D+00
     42  0.234340D-04 -0.101043D-05  0.000000D+00  0.217833D+01  0.000000D+00
     43  0.274512D-03 -0.118365D-04  0.000000D+00  0.000000D+00  0.217833D+01
     44  0.899505D-01  0.306718D+00  0.260214D-05  0.000000D+00 -0.479495D-05
     45 -0.199844D-05 -0.523827D-05  0.376673D+00  0.000000D+00  0.000000D+00
     46  0.000000D+00  0.000000D+00  0.000000D+00  0.376673D+00  0.000000D+00
     47  0.368251D-05  0.965255D-05  0.000000D+00  0.000000D+00  0.376673D+00
     48 -0.524817D+00  0.520042D+00 -0.411822D-04 -0.134963D-05 -0.158099D-04
     49 -0.524817D+00  0.520042D+00  0.857977D-05  0.647811D-05 -0.158099D-04
     50 -0.524817D+00  0.520042D+00  0.857977D-05 -0.134963D-05  0.758864D-04
     51  0.000000D+00  0.000000D+00  0.677901D-05 -0.430952D-04  0.000000D+00
     52  0.000000D+00  0.000000D+00  0.794113D-04  0.000000D+00 -0.430952D-04
     53  0.000000D+00  0.000000D+00  0.000000D+00  0.794113D-04  0.677901D-05
     54 -0.972469D-04 -0.277921D-01 -0.217034D-01  0.301666D-02  0.224273D-02
     55 -0.355157D-01 -0.192281D-01  0.948489D-01 -0.131835D-01 -0.980126D-02
     56  0.497715D-01 -0.103703D+00 -0.320615D+00  0.479646D-01  0.356592D-01
     57 -0.691798D-02  0.144143D-01  0.479646D-01  0.177999D-01 -0.495645D-02
     58 -0.514316D-02  0.107163D-01  0.356592D-01 -0.495645D-02  0.207819D-01
     59  0.844158D-02  0.696744D-01  0.143386D+00 -0.199299D-01 -0.148168D-01
     60 -0.737578D-01 -0.276113D+00 -0.251398D+00  0.531141D-01  0.394876D-01
     61  0.102520D-01  0.383784D-01  0.531141D-01  0.123349D+00 -0.548857D-02
     62  0.762180D-02  0.285323D-01  0.394876D-01 -0.548857D-02  0.126651D+00
     63 -0.643403D-01  0.229954D+00  0.545365D+00 -0.107634D+00 -0.800200D-01
     64 -0.182341D-01 -0.643143D-01 -0.173944D-01  0.342483D-01  0.179746D-02
     65 -0.178279D-01 -0.669073D-01 -0.243711D-01  0.338746D-02  0.261828D-01
     66  0.113186D-01 -0.722397D-01 -0.166803D+00 -0.171308D+00  0.200853D-01
     67  0.841476D-02 -0.537065D-01 -0.124010D+00  0.200853D-01 -0.183392D+00
     68 -0.116961D-02  0.746493D-02  0.200853D-01  0.177022D-01  0.254906D-01
     69 -0.348697D-01  0.431762D-01 -0.830272D-01  0.137823D+00  0.177735D+00
     70  0.242358D-01  0.114905D+00 -0.459252D-01  0.762345D-01  0.983113D-01
     71 -0.348707D-01  0.432450D-01 -0.151295D+00 -0.105525D+00 -0.153367D+00
     72  0.242448D-01  0.114936D+00 -0.836434D-01 -0.583392D-01 -0.847887D-01
     73 -0.780153D-03 -0.215604D-01 -0.259249D-01  0.118461D-01  0.137552D-01
     74 -0.441023D-02 -0.913370D-02  0.181169D-01 -0.827835D-02 -0.961244D-02
     75 -0.781143D-03 -0.215716D-01 -0.303813D-01 -0.401852D-02 -0.794772D-02
     76 -0.440964D-02 -0.912564D-02  0.212402D-01  0.280943D-02  0.555641D-02
                6             7             8             9            10 
      6  0.253072D+00
      7  0.000000D+00  0.421786D+00
      8  0.000000D+00  0.000000D+00  0.421786D+00
      9  0.000000D+00  0.000000D+00  0.000000D+00  0.421786D+00
     10  0.226288D+00  0.000000D+00  0.000000D+00  0.000000D+00  0.173333D+01
     11  0.226288D+00  0.000000D+00  0.000000D+00  0.000000D+00 -0.133333D+00
     12  0.226288D+00  0.000000D+00  0.000000D+00  0.000000D+00 -0.133333D+00
     13  0.000000D+00  0.000000D+00  0.000000D+00  0.000000D+00  0.000000D+00
     14  0.000000D+00  0.000000D+00  0.000000D+00  0.000000D+00  0.000000D+00
     15  0.000000D+00  0.000000D+00  0.000000D+00  0.000000D+00  0.000000D+00
     16  0.992876D-02  0.539806D-01 -0.750305D-02 -0.557859D-02 -0.620360D-01
     17  0.608074D-01  0.233102D+00 -0.324000D-01 -0.240897D-01  0.198291D+00
     18 -0.877020D-01 -0.139040D+00  0.317857D-01  0.236329D-01 -0.537894D+00
     19  0.121902D-01  0.317857D-01  0.852240D-01 -0.328487D-02  0.979218D-01
     20  0.906349D-02  0.236329D-01 -0.328487D-02  0.871997D-01  0.728058D-01
     21  0.102195D+00  0.228457D+00 -0.317545D-01 -0.236098D-01  0.128755D+00
     22 -0.203789D+00 -0.127586D+00  0.466862D-01  0.347116D-01 -0.247833D+00
     23  0.283257D-01  0.466862D-01  0.201808D+00 -0.482474D-02  0.616172D-01
     24  0.210604D-01  0.347116D-01 -0.482474D-02  0.204710D+00  0.458130D-01
     25  0.106567D+00  0.197408D+00 -0.472250D-01 -0.351122D-01  0.691499D+00
     26  0.382763D-01  0.188321D+00 -0.638945D-02 -0.194619D-01 -0.212905D-01
     27  0.376746D-01  0.186987D+00 -0.259902D-01 -0.461274D-02 -0.359502D-01
     28 -0.167645D-01 -0.200413D-01 -0.118113D+00  0.384200D-02 -0.286787D+00
     29 -0.124646D-01 -0.149009D-01  0.384200D-02 -0.120424D+00 -0.213229D+00
     30  0.173252D-02  0.384200D-02  0.122063D-01  0.167383D-01  0.422158D-01
     31  0.949597D-01 -0.936207D-01  0.155403D+00  0.200465D+00 -0.301174D-01
     32  0.133978D+00 -0.715410D-01  0.118752D+00  0.153187D+00  0.767080D-01
     33  0.949947D-01 -0.170522D+00 -0.118916D+00 -0.172914D+00  0.975038D-01
     34  0.134005D+00 -0.130291D+00 -0.908600D-01 -0.132119D+00  0.943436D-01
     35 -0.120069D-01  0.271568D-01 -0.124105D-01 -0.144083D-01 -0.304728D-01
     36  0.150718D-01  0.812812D-01 -0.371451D-01 -0.431245D-01  0.397225D-02
     37 -0.120000D-01  0.318580D-01  0.421683D-02  0.833360D-02 -0.383158D-01
     38  0.150923D-01  0.952606D-01  0.126090D-01  0.249188D-01  0.112212D-01
     39  0.899505D-01  0.199844D-05  0.000000D+00 -0.368251D-05 -0.524817D+00
     40  0.306718D+00  0.523827D-05  0.000000D+00 -0.965255D-05  0.520042D+00
     41 -0.260214D-05  0.376673D+00  0.000000D+00  0.000000D+00  0.411822D-04
     42  0.000000D+00  0.000000D+00  0.376673D+00  0.000000D+00  0.134963D-05
     43  0.479495D-05  0.000000D+00  0.000000D+00  0.376673D+00  0.158099D-04
     44  0.253072D+00  0.291378D-05  0.000000D+00 -0.536922D-05  0.226288D+00
     45 -0.291378D-05  0.421786D+00  0.000000D+00  0.000000D+00 -0.162808D-05
     46  0.000000D+00  0.000000D+00  0.421786D+00  0.000000D+00  0.000000D+00
     47  0.536922D-05  0.000000D+00  0.000000D+00  0.421786D+00  0.844855D-05
     48  0.226288D+00  0.162808D-05  0.000000D+00 -0.844855D-05  0.173333D+01
     49  0.226288D+00  0.458489D-05  0.000000D+00 -0.844855D-05 -0.133333D+00
     50  0.226288D+00  0.458489D-05  0.000000D+00 -0.300006D-05 -0.133333D+00
     51  0.000000D+00  0.000000D+00 -0.256067D-05  0.000000D+00  0.000000D+00
[...]
  54 8   N  1S          0.00599   0.00020   0.00599   0.00000  -0.00002
  55        2S         -0.09045  -0.01756  -0.09042   0.00008   0.00853
  56        2PX         0.00362  -0.02332   0.01517  -0.00042   0.00158
  57        2PY         0.01498  -0.00498   0.00929  -0.00001   0.00001
  58        2PZ         0.02536  -0.01176   0.01949   0.00000   0.00003
  59        3S         -0.26270  -0.07992  -0.26270   0.00550  -0.00277
  60        3PX        -0.00375   0.04009  -0.02548  -0.00065  -0.04714
  61        3PY        -0.03109  -0.00702  -0.02063  -0.00001  -0.00077
  62        3PZ        -0.05338  -0.01065  -0.04199  -0.00001  -0.00058
  63        4XX         0.02975   0.02879   0.03551  -0.00273   0.05770
  64        4YY         0.04972   0.00951   0.04642  -0.00002  -0.00512
  65        4ZZ         0.05218   0.01534   0.04875  -0.00002  -0.00589
  66        4XY         0.00009   0.00426   0.00061  -0.00008   0.00208
  67        4XZ         0.00032   0.00979   0.00101  -0.00005   0.00120
  68        4YZ         0.00020   0.00130  -0.00008   0.00000  -0.00005
  69 9   H  1S         -0.00010   0.00001  -0.00085   0.00001  -0.04695
  70        2S          0.00509  -0.00140   0.01027   0.00524  -0.16950
  71 10  H  1S         -0.00085   0.00000  -0.00010   0.00001  -0.04695
  72        2S          0.01027  -0.00036   0.00508   0.00525  -0.16945
  73 11  H  1S         -0.02273  -0.00056   0.00162   0.00000   0.00067
  74        2S          0.14344   0.00161   0.00782  -0.00015  -0.00926
  75 12  H  1S          0.00161   0.55863  -0.02271   0.00000   0.00067
  76        2S          0.00783  -0.02275   0.14336  -0.00015  -0.00925
                          41        42        43        44        45
  41        2PX         1.04577
  42        2PY         0.00000   0.73709
  43        2PZ         0.00000   0.00000   0.79375
  44        3S          0.00000   0.00000   0.00000   0.83923
  45        3PX        -0.17120   0.00000   0.00000   0.00000   0.91535
  46        3PY         0.00000  -0.20051   0.00000   0.00000   0.00000
  47        3PZ         0.00000   0.00000  -0.27936   0.00000   0.00000
  48        4XX         0.00000   0.00000   0.00000  -0.16581   0.00000
  49        4YY         0.00000   0.00000   0.00000  -0.15975   0.00000
  50        4ZZ         0.00000   0.00000   0.00000  -0.15761   0.00000
  51        4XY         0.00000   0.00000   0.00000   0.00000   0.00000
  52        4XZ         0.00000   0.00000   0.00000   0.00000   0.00000
  53        4YZ         0.00000   0.00000   0.00000   0.00000   0.00000
  54 8   N  1S         -0.00059  -0.00001  -0.00001   0.01466   0.01330
  55        2S          0.00256   0.00006   0.00002  -0.21390  -0.23163
  56        2PX        -0.08954  -0.00245  -0.00130   0.02380   0.00267
  57        2PY        -0.00248  -0.00226  -0.00011   0.00047   0.00091
  58        2PZ        -0.00128  -0.00011  -0.00186   0.00025   0.00063
  59        3S         -0.04188  -0.00077  -0.00047  -0.73470  -0.61892
  60        3PX        -0.05633  -0.00221  -0.00118  -0.15804   0.00589
  61        3PY        -0.00213   0.00971  -0.00002  -0.00312   0.00210
  62        3PZ        -0.00123  -0.00002   0.00984  -0.00169   0.00175
  63        4XX        -0.09209  -0.00399  -0.00251   0.12218   0.08102
  64        4YY         0.00011  -0.00009   0.00009   0.11024   0.13121
  65        4ZZ         0.00057   0.00010  -0.00007   0.11032   0.13303
  66        4XY        -0.00397  -0.00570   0.00019  -0.00024  -0.00003
  67        4XZ        -0.00239   0.00020  -0.00901  -0.00014   0.00005
  68        4YZ        -0.00006  -0.00012  -0.00024   0.00000   0.00004
  69 9   H  1S         -0.01258  -0.02305  -0.03760  -0.02113   0.01626
  70        2S          0.00867   0.03010   0.05007  -0.03269  -0.04352
  71 10  H  1S         -0.03486  -0.01203  -0.02639  -0.02114   0.03322
  72        2S          0.03235   0.01827   0.03826  -0.03281  -0.11721
  73 11  H  1S          0.00026   0.00003   0.00002   0.01258  -0.00207
  74        2S         -0.00458   0.00038   0.00082   0.03779   0.08737
  75 12  H  1S          0.00032   0.00000   0.00000   0.01262  -0.00520
  76        2S         -0.00440   0.00032   0.00072   0.03790   0.10178
                          46        47        48        49        50
  46        3PY         0.33542
  47        3PZ         0.00000   0.54636
  48        4XX         0.00000   0.00000   0.52162
  49        4YY         0.00000   0.00000   0.13936   0.43986
  50        4ZZ         0.00000   0.00000   0.13815   0.14694   0.44250
  51        4XY         0.00000   0.00000   0.00000   0.00000   0.00000
  52        4XZ         0.00000   0.00000   0.00000   0.00000   0.00000
  53        4YZ         0.00000   0.00000   0.00000   0.00000   0.00000
  54 8   N  1S          0.00026   0.00014  -0.00162  -0.00002  -0.00001
  55        2S         -0.00451  -0.00245   0.02441   0.00040  -0.00010
  56        2PX         0.00084   0.00065  -0.07981  -0.00062  -0.00016
  57        2PY         0.01563  -0.00018  -0.00302  -0.00007   0.00004
  58        2PZ        -0.00019   0.02159  -0.00183   0.00003  -0.00005
  59        3S         -0.01212  -0.00652   0.06648   0.01286   0.00934
  60        3PX         0.00242   0.00157   0.00046   0.01695   0.01835
  61        3PY         0.00500  -0.00036   0.00151  -0.00011  -0.00015
  62        3PZ        -0.00033   0.01686   0.00142  -0.00025  -0.00013
  63        4XX         0.00419   0.00308  -0.08004  -0.01194  -0.01069
  64        4YY         0.00105   0.00073  -0.00793   0.00005   0.00017
  65        4ZZ         0.00192   0.00040  -0.00707   0.00011   0.00068
  66        4XY         0.00776  -0.00021  -0.00192   0.00044  -0.00051
  67        4XZ        -0.00022   0.01341  -0.00076  -0.00035   0.00031
  68        4YZ         0.00020   0.00038   0.00006   0.00000  -0.00001
  69 9   H  1S          0.00985   0.01415   0.01300   0.01481   0.02212
  70        2S         -0.07467  -0.11989   0.01673   0.04805   0.05202
  71 10  H  1S          0.00134   0.00569   0.02682   0.00963   0.01554
  72        2S         -0.03762  -0.08319   0.02476   0.04330   0.04699
  73 11  H  1S         -0.00220  -0.00318  -0.00046  -0.00015  -0.00018
  74        2S          0.00522   0.00415  -0.00040   0.00144   0.00186
  75 12  H  1S         -0.00058  -0.00165  -0.00086  -0.00006  -0.00008
  76        2S         -0.00206  -0.00303  -0.00223   0.00184   0.00224
                          51        52        53        54        55
  51        4XY         0.01608
  52        4XZ         0.00000   0.02579
  53        4YZ         0.00000   0.00000   0.00314
  54 8   N  1S         -0.00005  -0.00003   0.00000   0.61952
  55        2S          0.00079   0.00052  -0.00007  -0.07217   1.09853
  56        2PX        -0.00358  -0.00212  -0.00001   0.00000   0.00000
  57        2PY        -0.00272   0.00011  -0.00007   0.00000   0.00000
  58        2PZ         0.00010  -0.00451  -0.00013   0.00000   0.00000
  59        3S          0.00070   0.00046  -0.00007  -0.10991   1.25390
  60        3PX         0.00008   0.00012   0.00004   0.00000   0.00000
  61        3PY         0.00658  -0.00023   0.00017   0.00000   0.00000
  62        3PZ        -0.00022   0.01148   0.00032   0.00000   0.00000
  63        4XX        -0.00153  -0.00059   0.00013   0.01173  -0.33777
  64        4YY         0.00034  -0.00031  -0.00002   0.01189  -0.37007
  65        4ZZ        -0.00039   0.00027  -0.00002   0.01180  -0.36919
  66        4XY         0.00391  -0.00038   0.00016   0.00000   0.00000
  67        4XZ        -0.00038   0.00720   0.00029   0.00000   0.00000
  68        4YZ         0.00015   0.00028  -0.00006   0.00000   0.00000
  69 9   H  1S          0.00326   0.00514   0.00597   0.00000   0.00013
  70        2S          0.00018   0.00055   0.00068  -0.00010  -0.00329
  71 10  H  1S          0.00324   0.00758   0.00155   0.00000   0.00013
  72        2S          0.00115   0.00195   0.00002  -0.00010  -0.00330
  73 11  H  1S         -0.00014  -0.00022  -0.00002   0.00020  -0.01761
  74        2S         -0.00061  -0.00089   0.00005   0.00599  -0.09043
  75 12  H  1S         -0.00004  -0.00013   0.00000   0.00020  -0.01766
  76        2S         -0.00010  -0.00033   0.00004   0.00600  -0.09049
                          56        57        58        59        60
  56        2PX         0.85793
  57        2PY         0.00000   0.68122
  58        2PZ         0.00000   0.00000   0.71958
  59        3S          0.00000   0.00000   0.00000   2.76003
  60        3PX        -0.13626   0.00000   0.00000   0.00000   0.30134
  61        3PY         0.00000  -0.15365   0.00000   0.00000   0.00000
  62        3PZ         0.00000   0.00000  -0.20710   0.00000   0.00000
  63        4XX         0.00000   0.00000   0.00000  -0.51756   0.00000
  64        4YY         0.00000   0.00000   0.00000  -0.61403   0.00000
  65        4ZZ         0.00000   0.00000   0.00000  -0.61702   0.00000
  66        4XY         0.00000   0.00000   0.00000   0.00000   0.00000
  67        4XZ         0.00000   0.00000   0.00000   0.00000   0.00000
  68        4YZ         0.00000   0.00000   0.00000   0.00000   0.00000
  69 9   H  1S         -0.00015  -0.00001  -0.00001   0.00568  -0.00246
  70        2S          0.00072  -0.00155  -0.00253  -0.02890   0.03037
  71 10  H  1S         -0.00018   0.00000   0.00000   0.00568  -0.00457
  72        2S         -0.00127  -0.00059  -0.00150  -0.02893   0.03842
  73 11  H  1S         -0.01008  -0.01149  -0.01848  -0.08002   0.02493
  74        2S          0.00362   0.01498   0.02536  -0.26265  -0.00375
  75 12  H  1S         -0.02334  -0.00497  -0.01174  -0.08021   0.04014
  76        2S          0.01517   0.00929   0.01949  -0.26290  -0.02545
                          61        62        63        64        65
  61        3PY         0.21440
  62        3PZ         0.00000   0.34544
  63        4XX         0.00000   0.00000   0.35953
  64        4YY         0.00000   0.00000   0.09599   0.32213
  65        4ZZ         0.00000   0.00000   0.09539   0.10741   0.32284
  66        4XY         0.00000   0.00000   0.00000   0.00000   0.00000
  67        4XZ         0.00000   0.00000   0.00000   0.00000   0.00000
  68        4YZ         0.00000   0.00000   0.00000   0.00000   0.00000
  69 9   H  1S         -0.00141  -0.00208  -0.00067  -0.00012  -0.00014
  70        2S          0.00358   0.00491   0.00177   0.00211   0.00235
  71 10  H  1S         -0.00039  -0.00101  -0.00105  -0.00005  -0.00007
  72        2S         -0.00013   0.00053  -0.00109   0.00283   0.00310
  73 11  H  1S          0.00022  -0.00270   0.01333   0.01549   0.02291
  74        2S         -0.03108  -0.05338   0.02975   0.04971   0.05217
  75 12  H  1S         -0.00703  -0.01067   0.02885   0.00955   0.01541
  76        2S         -0.02063  -0.04200   0.03555   0.04645   0.04879
                          66        67        68        69        70
  66        4XY         0.01547
  67        4XZ         0.00000   0.02547
  68        4YZ         0.00000   0.00000   0.00249
  69 9   H  1S         -0.00012  -0.00017   0.00000   0.56998
  70        2S         -0.00095  -0.00142  -0.00009  -0.04048   0.24203
  71 10  H  1S         -0.00001  -0.00006   0.00000  -0.00031   0.00241
  72        2S         -0.00028  -0.00081   0.00004   0.00241  -0.00651
  73 11  H  1S          0.00418   0.00675   0.00641   0.00000  -0.00036
  74        2S          0.00009   0.00032   0.00020  -0.00010   0.00509
  75 12  H  1S          0.00426   0.00980   0.00130   0.00001  -0.00140
  76        2S          0.00061   0.00101  -0.00008  -0.00085   0.01027
                          71        72        73        74        75
  71 10  H  1S          0.57006
  72        2S         -0.04049   0.24202
  73 11  H  1S          0.00001  -0.00140   0.55853
  74        2S         -0.00085   0.01027  -0.02273   0.14342
  75 12  H  1S          0.00000  -0.00036  -0.00056   0.00161   0.55871
  76        2S         -0.00010   0.00508   0.00162   0.00783  -0.02269
                          76
  76        2S          0.14339
     Gross orbital populations:
                           1
   1 1   C  1S          1.02125
   2        2S          1.85791
   3        2PX         1.13799
   4        2PY         1.08585
   5        2PZ         1.06726
   6        3S          0.19085
   7        3PX         0.67338
   8        3PY         0.11220
   9        3PZ         0.25836
  10        4XX        -0.40283
  11        4YY        -0.32750
  12        4ZZ        -0.28270
  13        4XY         0.05357
  14        4XZ         0.10347
  15        4YZ         0.02423
  16 2   N  1S          1.02210
  17        2S          1.13090
  18        2PX         1.11144
  19        2PY         1.07894
  20        2PZ         1.07146
  21        3S          0.20056
  22        3PX         0.08593
  23        3PY         0.04411
  24        3PZ         0.13834
  25        4XX        -0.24819
  26        4YY        -0.18043
  27        4ZZ        -0.14072
  28        4XY         0.04948
  29        4XZ         0.10053
  30        4YZ         0.02171
  31 3   H  1S          0.98473
  32        2S         -0.01980
  33 4   H  1S          0.98469
  34        2S         -0.01998
  35 5   H  1S          0.98821
  36        2S          0.01727
  37 6   H  1S          0.98817
  38        2S          0.01726
  39 7   C  1S          1.02125
  40        2S          1.85791
  41        2PX         1.13800
  42        2PY         1.08585
  43        2PZ         1.06726
  44        3S          0.19085
  45        3PX         0.67334
  46        3PY         0.11221
  47        3PZ         0.25837
  48        4XX        -0.40282
  49        4YY        -0.32751
  50        4ZZ        -0.28271
  51        4XY         0.05357
  52        4XZ         0.10346
  53        4YZ         0.02422
  54 8   N  1S          1.02210
  55        2S          1.13090
  56        2PX         1.11144
  57        2PY         1.07894
  58        2PZ         1.07146
  59        3S          0.20056
  60        3PX         0.08592
  61        3PY         0.04411
  62        3PZ         0.13833
  63        4XX        -0.24820
  64        4YY        -0.18044
  65        4ZZ        -0.14072
  66        4XY         0.04948
  67        4XZ         0.10053
  68        4YZ         0.02171
  69 9   H  1S          0.98476
  70        2S         -0.01984
  71 10  H  1S          0.98475
  72        2S         -0.02003
  73 11  H  1S          0.98819
  74        2S          0.01727
  75 12  H  1S          0.98829
  76        2S          0.01725
          Condensed to atoms (all electrons):
               1          2          3          4          5          6
     1  C    5.029651  -1.470024  -0.264584  -0.264568   0.128157   0.128127
     2  N   -1.470024   4.812680   0.005289   0.005154  -0.305098  -0.304993
     3  H   -0.264584   0.005289   0.731032  -0.001934   0.004638   0.008042
     4  H   -0.264568   0.005154  -0.001934   0.731008   0.008050   0.004636
     5  H    0.128157  -0.305098   0.004638   0.008050   0.656524   0.010487
     6  H    0.128127  -0.304993   0.008042   0.004636   0.010487   0.656333
     7  C    5.029549  -1.469900  -0.264594  -0.264567   0.128148   0.128112
     8  N   -1.470038   4.812658   0.005290   0.005153  -0.305093  -0.304978
     9  H   -0.264688   0.005432   0.731040  -0.001961   0.004632   0.008022
    10  H   -0.264739   0.005358  -0.001971   0.731052   0.008023   0.004628
    11  H    0.128147  -0.305078   0.004637   0.008049   0.656506   0.010485
    12  H    0.128290  -0.305322   0.008040   0.004634   0.010507   0.656535
               7          8          9         10         11         12
     1  C    5.029549  -1.470038  -0.264688  -0.264739   0.128147   0.128290
     2  N   -1.469900   4.812658   0.005432   0.005358  -0.305078  -0.305322
     3  H   -0.264594   0.005290   0.731040  -0.001971   0.004637   0.008040
     4  H   -0.264567   0.005153  -0.001961   0.731052   0.008049   0.004634
     5  H    0.128148  -0.305093   0.004632   0.008023   0.656506   0.010507
     6  H    0.128112  -0.304978   0.008022   0.004628   0.010485   0.656535
     7  C    5.029448  -1.469915  -0.264697  -0.264737   0.128137   0.128274
     8  N   -1.469915   4.812636   0.005433   0.005357  -0.305074  -0.305308
     9  H   -0.264697   0.005433   0.731049  -0.001999   0.004631   0.008020
    10  H   -0.264737   0.005357  -0.001999   0.731097   0.008023   0.004626
    11  H    0.128137  -0.305074   0.004631   0.008023   0.656489   0.010505
    12  H    0.128274  -0.305308   0.008020   0.004626   0.010505   0.656737
 Mulliken charges:
               1
     1  C   -0.573280
     2  N    1.513844
     3  H    0.035074
     4  H    0.035292
     5  H   -0.005481
     6  H   -0.005436
     7  C   -0.573258
     8  N    1.513877
     9  H    0.035083
    10  H    0.035282
    11  H   -0.005458
    12  H   -0.005539
 Sum of Mulliken charges =   2.00000
 Mulliken charges with hydrogens summed into heavy atoms:
               1
     1  C   -0.503123
     2  N    1.502905
     7  C   -0.502684
     8  N    1.502902
 N-N= 3.224026872566D+06 E-N=-9.710749400932D+02  KE= 1.712059430152D+02
 Orbital energies and kinetic energies (alpha):
                                 1                 2
   1         O               -51.192114         27.245132
   2         O               -36.902895         20.734448
   3         O                -4.266963          3.854678
   4         O                -3.607211          4.147400
   5         O                -3.390624          3.888091
   6         O                -3.161077          3.685868
   7         O                -3.127484          3.645592
   8         O                -2.534113          3.279004
   9         O                -2.423270          2.715233
  10         O                -2.197380          2.641643
  11         O                -1.170046          1.826756
  12         O                -1.147489          1.819338
  13         O                -1.128857          1.883778
  14         O                -1.115690          1.933327
  15         O                -0.169144          1.305245
  16         O                -0.153894          0.997439
  17         V                -0.145419          0.764352
  18         V                -0.036662          1.021652
  19         V                -0.019391          1.190072
  20         V                -0.003829          0.846555
  21         V                 0.138147          0.706612
  22         V                 0.146296          0.700049
  23         V                 0.151399          0.917828
  24         V                 0.195959          1.075909
  25         V                 0.275315          2.590039
  26         V                 0.398148          2.635989
  27         V                 0.451053          2.181394
  28         V                 0.534049          1.956662
  29         V                 0.620402          3.544946
  30         V                 0.675941          2.999205
  31         V                 0.722448          3.088900
  32         V                 0.753441          2.929957
  33         V                 1.018452          3.740235
  34         V                 1.098478          3.532788
  35         V                 1.209392          3.562488
  36         V                 1.241504          3.540243
  37         V                 1.281502          4.214420
  38         V                 1.362137          4.292045
 Total kinetic energy from orbitals= 1.712059430152D+02

 This type of calculation cannot be archived.


 You don't have to suffer to be a poet.
 Adolescence is enough suffering for anyone.
                             -- John Ciardi
 Job cpu time:       0 days  0 hours  0 minutes  1.6 seconds.
 File lengths (MBytes):  RWF=      5 Int=      0 D2E=      0 Chk=      1 Scr=      1
 Normal termination of Gaussian 09 at Wed Apr 30 11:43:06 2014.
