 Entering Gaussian System, Link 0=g09
 Input=gaussian.gjf
 Output=gaussian.log
 Initial command:
 /opt/g09_D01_em64t/g09/l1.exe "/tmp/Gau-20830.inp" -scrdir="/tmp/"
 Entering Link 1 = /opt/g09_D01_em64t/g09/l1.exe PID=     20831.
  
 Copyright (c) 1988,1990,1992,1993,1995,1998,2003,2009,2013,
            Gaussian, Inc.  All Rights Reserved.
  
 This is part of the Gaussian(R) 09 program.  It is based on
 the Gaussian(R) 03 system (copyright 2003, Gaussian, Inc.),
 the Gaussian(R) 98 system (copyright 1998, Gaussian, Inc.),
 the Gaussian(R) 94 system (copyright 1995, Gaussian, Inc.),
 the Gaussian 92(TM) system (copyright 1992, Gaussian, Inc.),
 the Gaussian 90(TM) system (copyright 1990, Gaussian, Inc.),
 the Gaussian 88(TM) system (copyright 1988, Gaussian, Inc.),
 the Gaussian 86(TM) system (copyright 1986, Carnegie Mellon
 University), and the Gaussian 82(TM) system (copyright 1983,
 Carnegie Mellon University). Gaussian is a federally registered
 trademark of Gaussian, Inc.
  
 This software contains proprietary and confidential information,
 including trade secrets, belonging to Gaussian, Inc.
  
 This software is provided under written license and may be
 used, copied, transmitted, or stored only in accord with that
 written license.
  
 The following legend is applicable only to US Government
 contracts under FAR:
  
                    RESTRICTED RIGHTS LEGEND
  
 Use, reproduction and disclosure by the US Government is
 subject to restrictions as set forth in subparagraphs (a)
 and (c) of the Commercial Computer Software - Restricted
 Rights clause in FAR 52.227-19.
  
 Gaussian, Inc.
 340 Quinnipiac St., Bldg. 40, Wallingford CT 06492
  
  
 ---------------------------------------------------------------
 Warning -- This program may not be used in any manner that
 competes with the business of Gaussian, Inc. or will provide
 assistance to any competitor of Gaussian, Inc.  The licensee
 of this program is prohibited from giving any competitor of
 Gaussian, Inc. access to this program.  By using this program,
 the user acknowledges that Gaussian, Inc. is engaged in the
 business of creating and licensing software in the field of
 computational chemistry and represents and warrants to the
 licensee that it is not a competitor of Gaussian, Inc. and that
 it will not use this program in any manner prohibited above.
 ---------------------------------------------------------------
  

 Cite this work as:
 Gaussian 09, Revision D.01,
 M. J. Frisch, G. W. Trucks, H. B. Schlegel, G. E. Scuseria, 
 M. A. Robb, J. R. Cheeseman, G. Scalmani, V. Barone, B. Mennucci, 
 G. A. Petersson, H. Nakatsuji, M. Caricato, X. Li, H. P. Hratchian, 
 A. F. Izmaylov, J. Bloino, G. Zheng, J. L. Sonnenberg, M. Hada, 
 M. Ehara, K. Toyota, R. Fukuda, J. Hasegawa, M. Ishida, T. Nakajima, 
 Y. Honda, O. Kitao, H. Nakai, T. Vreven, J. A. Montgomery, Jr., 
 J. E. Peralta, F. Ogliaro, M. Bearpark, J. J. Heyd, E. Brothers, 
 K. N. Kudin, V. N. Staroverov, T. Keith, R. Kobayashi, J. Normand, 
 K. Raghavachari, A. Rendell, J. C. Burant, S. S. Iyengar, J. Tomasi, 
 M. Cossi, N. Rega, J. M. Millam, M. Klene, J. E. Knox, J. B. Cross, 
 V. Bakken, C. Adamo, J. Jaramillo, R. Gomperts, R. E. Stratmann, 
 O. Yazyev, A. J. Austin, R. Cammi, C. Pomelli, J. W. Ochterski, 
 R. L. Martin, K. Morokuma, V. G. Zakrzewski, G. A. Voth, 
 P. Salvador, J. J. Dannenberg, S. Dapprich, A. D. Daniels, 
 O. Farkas, J. B. Foresman, J. V. Ortiz, J. Cioslowski, 
 and D. J. Fox, Gaussian, Inc., Wallingford CT, 2013.
 
 ******************************************
 Gaussian 09:  EM64L-G09RevD.01 24-Apr-2013
                30-Apr-2014 
 ******************************************
 %chk=gaussian.chk
 %mem=1GB
 %nproc=2
 Will use up to    2 processors via shared memory.
 %nproclinda=1
 Will use up to    1 processors via Linda.
 ----------------------------------------------------------------------
 # b3lyp/6-31g* scf=(tight,maxcycle=10000) iop(9/40=20) nosymm pop=full
 ----------------------------------------------------------------------
 1/38=1/1;
 2/12=2,15=1,17=6,18=5,40=1/2;
 3/5=1,6=6,7=1,11=2,16=1,25=1,30=1,74=-5/1,2,3;
 4//1;
 5/5=2,7=10000,32=2,38=5/2;
 6/7=3,28=1/1;
 99/5=1,9=1/99;
 -------
 [0] [0]
 -------
 Symbolic Z-matrix:
 Charge =  1 Multiplicity = 1
 c                    -2.42966   0.38105   0.21319 
 n                    -1.17454   0.15584   0.07254 
 h                    -2.80611   0.86318   1.11404 
 h                    -3.10141   0.09012  -0.59267 
 h                    -0.80446  -0.3304   -0.75004 
 h                    -0.49556   0.46202   0.77284 
 
                          Input orientation:                          
 ---------------------------------------------------------------------
 Center     Atomic      Atomic             Coordinates (Angstroms)
 Number     Number       Type             X           Y           Z
 ---------------------------------------------------------------------
      1          6           0       -2.429660    0.381054    0.213186
      2          7           0       -1.174535    0.155844    0.072538
      3          1           0       -2.806105    0.863177    1.114042
      4          1           0       -3.101413    0.090117   -0.592670
      5          1           0       -0.804459   -0.330400   -0.750040
      6          1           0       -0.495561    0.462020    0.772836
 ---------------------------------------------------------------------
                    Distance matrix (angstroms):
                    1          2          3          4          5
     1  C    0.000000
     2  N    1.282903   0.000000
     3  H    1.088897   2.060843   0.000000
     4  H    1.088715   2.039529   1.896759   0.000000
     5  H    2.018724   1.024706   2.984295   2.340427   0.000000
     6  H    2.015068   1.022334   2.369802   2.965364   1.744275
                    6
     6  H    0.000000
 Symmetry turned off by external request.
 Stoichiometry    CH4N(1+)
 Framework group  C1[X(CH4N)]
 Deg. of freedom    12
 Full point group                 C1      NOp   1
 Rotational constants (GHZ):    151.0512183     31.1408159     25.8252402
 Standard basis: 6-31G(d) (6D, 7F)
    38 basis functions,    72 primitive gaussians,    38 cartesian basis functions
     8 alpha electrons        8 beta electrons
       nuclear repulsion energy        38.5444581826 Hartrees.
 NAtoms=    6 NActive=    6 NUniq=    6 SFac= 1.00D+00 NAtFMM=   60 NAOKFM=F Big=F
 Integral buffers will be    131072 words long.
 Raffenetti 2 integral format.
 Two-electron integral symmetry is turned off.
 One-electron integrals computed using PRISM.
 NBasis=    38 RedAO= T EigKep=  8.44D-03  NBF=    38
 NBsUse=    38 1.00D-06 EigRej= -1.00D+00 NBFU=    38
 ExpMin= 1.61D-01 ExpMax= 4.17D+03 ExpMxC= 6.27D+02 IAcc=1 IRadAn=         1 AccDes= 0.00D+00
 Harris functional with IExCor=  402 and IRadAn=       1 diagonalized for initial guess.
 HarFok:  IExCor=  402 AccDes= 0.00D+00 IRadAn=         1 IDoV= 1 UseB2=F ITyADJ=14
 ICtDFT=  3500011 ScaDFX=  1.000000  1.000000  1.000000  1.000000
 FoFCou: FMM=F IPFlag=           0 FMFlag=      100000 FMFlg1=           0
         NFxFlg=           0 DoJE=T BraDBF=F KetDBF=T FulRan=T
         wScrn=  0.000000 ICntrl=     500 IOpCl=  0 I1Cent=   200000004 NGrid=           0
         NMat0=    1 NMatS0=      1 NMatT0=    0 NMatD0=    1 NMtDS0=    0 NMtDT0=    0
 Symmetry not used in FoFCou.
 Keep R1 ints in memory in canonical form, NReq=101191747.
 Requested convergence on RMS density matrix=1.00D-08 within**** cycles.
 Requested convergence on MAX density matrix=1.00D-06.
 Requested convergence on             energy=1.00D-06.
 No special actions if energy rises.
 Integral accuracy reduced to 1.0D-05 until final iterations.
 Initial convergence to 1.0D-05 achieved.  Increase integral accuracy.
 SCF Done:  E(RB3LYP) =  -94.9738044438     A.U. after   11 cycles
            NFock= 11  Conv=0.50D-08     -V/T= 2.0106

 **********************************************************************

            Population analysis using the SCF density.

 **********************************************************************

 Alpha  occ. eigenvalues --  -14.69038 -10.54792  -1.24580  -0.95175  -0.84807
 Alpha  occ. eigenvalues --   -0.78757  -0.68387  -0.65135
 Alpha virt. eigenvalues --   -0.32033  -0.16882  -0.13475  -0.10244  -0.01499
 Alpha virt. eigenvalues --    0.03689   0.27575   0.27710   0.32069   0.38322
 Alpha virt. eigenvalues --    0.44182   0.44969   0.55779   0.61679   0.62330
 Alpha virt. eigenvalues --    0.66921   0.93807   1.08359   1.14622   1.18666
 Alpha virt. eigenvalues --    1.50229   1.58861   1.72815   1.87114   2.04813
 Alpha virt. eigenvalues --    2.10398   2.38222   2.42121   3.46098   3.80823
     Molecular Orbital Coefficients:
                           1         2         3         4         5
                           O         O         O         O         O
     Eigenvalues --   -14.69038 -10.54792  -1.24580  -0.95175  -0.84807
   1 1   C  1S          0.00007   0.99270  -0.10991  -0.16286  -0.00119
   2        2S          0.00033   0.04867   0.22100   0.34674   0.00263
   3        2PX         0.00027   0.00099   0.14889  -0.01512   0.04203
   4        2PY        -0.00005  -0.00018  -0.02682   0.00241   0.10700
   5        2PZ        -0.00003  -0.00011  -0.01729  -0.00028   0.22212
   6        3S         -0.00081  -0.00939   0.08460   0.28459   0.00284
   7        3PX        -0.00038   0.00036  -0.00841  -0.02250   0.01207
   8        3PY         0.00007  -0.00006   0.00186   0.00410   0.03172
   9        3PZ         0.00004  -0.00001   0.00153   0.00174   0.06630
  10        4XX        -0.00006  -0.00890   0.01632  -0.00379   0.00330
  11        4YY         0.00000  -0.00985  -0.01323  -0.01237  -0.00145
  12        4ZZ         0.00000  -0.00961  -0.00898   0.00393  -0.00199
  13        4XY         0.00001  -0.00019  -0.00596  -0.00084   0.00424
  14        4XZ         0.00001  -0.00007  -0.00278   0.00266   0.00783
  15        4YZ         0.00000   0.00020   0.00398   0.01124  -0.00200
  16 2   N  1S          0.99261  -0.00031  -0.19416   0.07529   0.00023
  17        2S          0.03479  -0.00019   0.41397  -0.16800  -0.00038
  18        2PX        -0.00017   0.00040  -0.07490  -0.32063   0.08165
  19        2PY         0.00003  -0.00007   0.01409   0.05561   0.20806
  20        2PZ         0.00002  -0.00005   0.00840   0.03431   0.40596
  21        3S          0.00481   0.00136   0.38639  -0.23167  -0.00082
  22        3PX        -0.00006   0.00031  -0.01625  -0.13228   0.04279
  23        3PY         0.00001  -0.00005   0.00294   0.02268   0.10887
  24        3PZ         0.00001  -0.00004   0.00111   0.01406   0.21199
  25        4XX        -0.00834  -0.00068   0.00858   0.00773   0.00303
  26        4YY        -0.00846  -0.00008  -0.01024   0.00073  -0.00118
  27        4ZZ        -0.00842  -0.00016   0.00319  -0.01292  -0.00182
  28        4XY        -0.00002   0.00012  -0.00253  -0.00307   0.00436
  29        4XZ         0.00000   0.00006   0.00138  -0.00474   0.00830
  30        4YZ         0.00003  -0.00007   0.01210  -0.01110  -0.00191
  31 3   H  1S         -0.00001  -0.00036   0.03404   0.12202   0.09065
  32        2S          0.00001   0.00209  -0.00313   0.02061   0.03363
  33 4   H  1S         -0.00002  -0.00035   0.03518   0.12243  -0.08994
  34        2S          0.00001   0.00211  -0.00201   0.02046  -0.03411
  35 5   H  1S          0.00031   0.00001   0.09724  -0.13428  -0.19430
  36        2S         -0.00058  -0.00003  -0.00976  -0.02025  -0.04934
  37 6   H  1S          0.00031   0.00001   0.09787  -0.13572   0.19370
  38        2S         -0.00058  -0.00002  -0.00951  -0.02030   0.04876
                           6         7         8         9        10
                           O         O         O         V         V
     Eigenvalues --    -0.78757  -0.68387  -0.65135  -0.32033  -0.16882
   1 1   C  1S          0.05225   0.00014   0.00045   0.00090  -0.01803
   2        2S         -0.10061   0.00004  -0.00096  -0.00212   0.05904
   3        2PX         0.42410   0.07263   0.05087   0.06270  -0.14830
   4        2PY        -0.07951   0.13284   0.32206   0.48633   0.02103
   5        2PZ        -0.04918   0.40488  -0.09017  -0.23204   0.00360
   6        3S         -0.19918  -0.00174  -0.00187  -0.00404   0.25293
   7        3PX         0.09766   0.03445   0.02459   0.06715  -0.48608
   8        3PY        -0.01895   0.06909   0.15596   0.51244   0.07489
   9        3PZ        -0.01204   0.19989  -0.03966  -0.24099   0.02467
  10        4XX         0.01830  -0.00894   0.00382  -0.00334   0.01486
  11        4YY        -0.00432   0.00505  -0.00692   0.00541  -0.00096
  12        4ZZ        -0.02418   0.00365   0.00306  -0.00187  -0.01091
  13        4XY        -0.00597  -0.01546   0.02169  -0.01700  -0.00495
  14        4XZ        -0.00705  -0.02534  -0.01734   0.01040  -0.00610
  15        4YZ        -0.01256   0.00606   0.00043   0.00010  -0.00703
  16 2   N  1S         -0.01874  -0.00091   0.00017  -0.00058  -0.11883
  17        2S          0.04603   0.00231  -0.00039   0.00157   0.22720
  18        2PX        -0.37795  -0.05685   0.04447  -0.04120   0.17367
  19        2PY         0.06746  -0.17305   0.44294  -0.35182  -0.03543
  20        2PZ         0.04673  -0.17605  -0.27854   0.18983  -0.03123
  21        3S          0.03739   0.00415  -0.00061   0.00268   1.63927
  22        3PX        -0.16890  -0.03597   0.02980  -0.04621   0.28275
  23        3PY         0.03040  -0.11142   0.29228  -0.40101  -0.05659
  24        3PZ         0.02176  -0.11679  -0.18465   0.21632  -0.04895
  25        4XX        -0.00196  -0.00851  -0.00448  -0.00594  -0.01384
  26        4YY        -0.00253   0.00318   0.00505   0.00805  -0.01901
  27        4ZZ        -0.01054   0.00508  -0.00064  -0.00220  -0.02742
  28        4XY        -0.00083  -0.00970  -0.01543  -0.02564  -0.00106
  29        4XZ        -0.00209  -0.02599   0.00320   0.01193  -0.00142
  30        4YZ        -0.00651   0.00570   0.00112   0.00092  -0.00653
  31 3   H  1S         -0.16450   0.22450   0.03332  -0.00393  -0.01219
  32        2S         -0.07780   0.12290   0.01975  -0.00825  -0.33810
  33 4   H  1S         -0.15639  -0.23069  -0.03481   0.00675  -0.02269
  34        2S         -0.07467  -0.12718  -0.02093   0.01215  -0.40310
  35 5   H  1S         -0.09832   0.14032   0.02181   0.00600  -0.13528
  36        2S         -0.04571   0.07506   0.01304   0.00987  -1.02104
  37 6   H  1S         -0.09445  -0.14289  -0.02200  -0.00801  -0.12346
  38        2S         -0.04443  -0.07696  -0.01364  -0.01337  -0.95606
                          11        12        13        14        15
                           V         V         V         V         V
     Eigenvalues --    -0.13475  -0.10244  -0.01499   0.03689   0.27575
   1 1   C  1S          0.00364  -0.13611  -0.00174  -0.06583  -0.00005
   2        2S         -0.00846   0.27598  -0.00071   0.01274  -0.00204
   3        2PX        -0.03650  -0.15534   0.07324   0.18495  -0.12396
   4        2PY        -0.10284   0.02931   0.16242  -0.04163  -0.87714
   5        2PZ        -0.24020   0.01189   0.37261  -0.03742   0.41903
   6        3S         -0.04359   1.97575   0.04800   2.17042  -0.00593
   7        3PX        -0.05489  -0.33303   0.29367   2.30619   0.13209
   8        3PY        -0.19008   0.06396   0.56982  -0.44307   0.98261
   9        3PZ        -0.46226   0.02352   1.25456  -0.31271  -0.47356
  10        4XX        -0.01049  -0.01043  -0.00146  -0.04906  -0.00793
  11        4YY         0.00479   0.00474   0.00022   0.01380   0.01185
  12        4ZZ         0.00606  -0.00985   0.00093   0.03296  -0.00389
  13        4XY        -0.01467   0.00194   0.00153   0.01478  -0.03757
  14        4XZ        -0.03041  -0.00176   0.00443   0.01227   0.01998
  15        4YZ         0.00787  -0.00959  -0.00043   0.00913   0.00076
  16 2   N  1S          0.00343   0.05658   0.00091   0.06330  -0.00067
  17        2S         -0.00535  -0.11364  -0.00187  -0.06537   0.00182
  18        2PX        -0.07353  -0.00078  -0.03557   0.38652  -0.02307
  19        2PY        -0.16027  -0.00547  -0.13960  -0.06331  -0.21369
  20        2PZ        -0.29603  -0.00659  -0.27058  -0.03515   0.12558
  21        3S         -0.06229  -0.71301  -0.02821  -1.98128   0.00009
  22        3PX        -0.13297   0.13165  -0.11215   1.63765  -0.00826
  23        3PY        -0.30114  -0.03488  -0.39823  -0.27674   0.05979
  24        3PZ        -0.54690  -0.02644  -0.79792  -0.15634  -0.04051
  25        4XX         0.01157   0.01925  -0.00763   0.02105   0.01114
  26        4YY        -0.00399   0.00853   0.00340   0.02538  -0.01807
  27        4ZZ        -0.00543  -0.00213   0.00506   0.00857   0.00685
  28        4XY         0.01500  -0.00328  -0.00944  -0.00035   0.05967
  29        4XZ         0.03281  -0.00391  -0.02313  -0.00342  -0.03043
  30        4YZ        -0.00743  -0.00596   0.00501  -0.01536  -0.00124
  31 3   H  1S          0.09696  -0.12783  -0.06010   0.03981   0.00143
  32        2S          0.75443  -1.25875  -1.45953   0.37032   0.00566
  33 4   H  1S         -0.09083  -0.12757   0.06273   0.04622  -0.00100
  34        2S         -0.68973  -1.26816   1.49171   0.19757  -0.00875
  35 5   H  1S         -0.13930   0.04623  -0.01590  -0.06977   0.00182
  36        2S         -0.96833   0.31208  -0.96100  -0.55983   0.01271
  37 6   H  1S          0.14747   0.04785   0.00871  -0.07044   0.00056
  38        2S          1.05144   0.35399   0.89768  -0.62170  -0.01063
                          16        17        18        19        20
                           V         V         V         V         V
     Eigenvalues --     0.27710   0.32069   0.38322   0.44182   0.44969
   1 1   C  1S         -0.02307  -0.00115  -0.06142  -0.00358   0.06130
   2        2S          0.44145  -0.02756  -0.81488   0.01483  -0.21120
   3        2PX         0.91569  -0.10095   0.09405   0.04770  -0.23119
   4        2PY        -0.17230  -0.24016  -0.00585   0.26081   0.04978
   5        2PZ        -0.08822  -0.49701   0.01170  -0.13246   0.00595
   6        3S          0.43037  -0.01729   1.57569  -0.07585   1.12284
   7        3PX        -0.65180   0.16406  -0.50975  -0.12178   0.72969
   8        3PY         0.12793   0.57868   0.05885  -0.63347  -0.15864
   9        3PZ         0.05987   1.24452  -0.02326   0.33618  -0.03173
  10        4XX        -0.00417   0.03253  -0.10085  -0.01326   0.14410
  11        4YY         0.02657  -0.01800   0.03496   0.01077  -0.04580
  12        4ZZ         0.01270  -0.02315  -0.15012  -0.00120  -0.03252
  13        4XY         0.00597   0.05176   0.01410  -0.02332  -0.04046
  14        4XZ         0.00278   0.11046  -0.03008   0.02282  -0.01936
  15        4YZ        -0.01149  -0.02907  -0.12845  -0.00095   0.01055
  16 2   N  1S          0.05425  -0.00125  -0.01304   0.00333  -0.05637
  17        2S         -0.06420  -0.00521  -0.24278  -0.00882   0.17811
  18        2PX        -0.02987   0.00086   0.20242  -0.06729  -0.46087
  19        2PY         0.00071  -0.00866  -0.04202  -0.82409   0.03125
  20        2PZ         0.00032  -0.07071  -0.02592   0.43888   0.07697
  21        3S         -0.07466   0.06740   0.40516   0.02931  -0.47835
  22        3PX         1.03075  -0.05478  -0.09133   0.04972   1.39167
  23        3PY        -0.18000   0.02447   0.02893   1.14793  -0.17000
  24        3PZ        -0.10857   0.04284   0.02993  -0.58876  -0.18735
  25        4XX         0.17377  -0.03486  -0.05450   0.00831  -0.08256
  26        4YY        -0.04109   0.01327   0.00614  -0.01040   0.08117
  27        4ZZ        -0.06841   0.02005  -0.07252   0.00866  -0.08333
  28        4XY        -0.04844  -0.04533   0.00630   0.01699   0.01745
  29        4XZ        -0.03787  -0.09422  -0.01069  -0.01600  -0.02902
  30        4YZ        -0.01357   0.02351  -0.06270   0.00967  -0.14519
  31 3   H  1S         -0.04292  -0.42557  -0.57637  -0.01842   0.15178
  32        2S         -0.07112  -0.29752  -0.07705   0.01418  -0.09947
  33 4   H  1S         -0.02944   0.38905  -0.59363   0.00392   0.15918
  34        2S         -0.07295   0.29097  -0.14805  -0.00085  -0.06864
  35 5   H  1S         -0.04185   0.40721  -0.22450   0.05621  -0.64400
  36        2S         -0.14852  -0.20700   0.05740  -0.01734   0.05350
  37 6   H  1S         -0.05577  -0.39624  -0.20169   0.02271  -0.66414
  38        2S         -0.13428   0.21747   0.02593   0.00838   0.05529
                          21        22        23        24        25
                           V         V         V         V         V
     Eigenvalues --     0.55779   0.61679   0.62330   0.66921   0.93807
   1 1   C  1S         -0.00095  -0.00063   0.01320   0.01222   0.01025
   2        2S          0.00918   0.08389  -0.62837  -1.30655   0.67024
   3        2PX        -0.14154   0.05616  -0.07440   0.50548  -0.00736
   4        2PY        -0.36675   0.14340   0.02671  -0.09263  -0.00352
   5        2PZ        -0.81673   0.32439   0.03775  -0.05100  -0.00732
   6        3S         -0.02036  -0.30460   2.51212   2.35142  -3.96081
   7        3PX         0.35122  -0.27198   1.00900  -1.15514  -1.63553
   8        3PY         0.94469  -0.45098  -0.23130   0.21294   0.28045
   9        3PZ         2.09754  -0.99417  -0.21724   0.11840   0.16560
  10        4XX        -0.04469   0.00088   0.08769  -0.14364  -0.07886
  11        4YY         0.02056  -0.00025  -0.03515  -0.08082   0.02187
  12        4ZZ         0.02305   0.00675  -0.08109   0.05238   0.13322
  13        4XY        -0.05786   0.01130  -0.03002   0.02130   0.02790
  14        4XZ        -0.12699   0.03304  -0.02542   0.03856   0.03396
  15        4YZ         0.02790  -0.00155  -0.02893   0.08894   0.04997
  16 2   N  1S          0.00076  -0.00284   0.02312  -0.00866  -0.08153
  17        2S          0.00549   0.05542  -0.47637  -0.11152  -1.71514
  18        2PX        -0.03955  -0.09197  -0.79057   0.19621   0.15182
  19        2PY        -0.13397  -0.43670   0.08772  -0.03848  -0.03395
  20        2PZ        -0.22463  -0.82842  -0.00300  -0.03081  -0.02727
  21        3S          0.01154  -0.02339   0.11886   0.27687   5.64599
  22        3PX        -0.00827   0.12659   1.95761  -0.58656  -1.40159
  23        3PY         0.02976   0.85976  -0.24654   0.10959   0.28487
  24        3PZ        -0.03208   1.62328  -0.03912   0.08021   0.21000
  25        4XX         0.05391   0.03462  -0.17413  -0.03832  -0.31058
  26        4YY        -0.02157   0.00092  -0.08062   0.01026  -0.15367
  27        4ZZ        -0.02710  -0.00840   0.00918  -0.00417  -0.28008
  28        4XY         0.06260   0.02249   0.03361   0.01093   0.01391
  29        4XZ         0.13510   0.03879   0.04314   0.00397  -0.02376
  30        4YZ        -0.03242  -0.01725   0.07145  -0.00790  -0.12941
  31 3   H  1S          0.38391  -0.33516  -0.06950   0.57297   0.12689
  32        2S         -1.73249   0.92063  -0.02023  -1.50407   0.24112
  33 4   H  1S         -0.40187   0.34440  -0.00724   0.57227   0.09385
  34        2S          1.74172  -0.86316  -0.19345  -1.49506   0.25949
  35 5   H  1S         -0.30029  -0.37318   0.43195  -0.02383  -0.13801
  36        2S          0.58623   1.40646  -1.07748   0.25805  -0.40490
  37 6   H  1S          0.29611   0.27472   0.50183  -0.01272  -0.17062
  38        2S         -0.57848  -1.14738  -1.36397   0.22157  -0.43540
                          26        27        28        29        30
                           V         V         V         V         V
     Eigenvalues --     1.08359   1.14622   1.18666   1.50229   1.58861
   1 1   C  1S          0.00088  -0.00032  -0.00161  -0.00722  -0.03665
   2        2S          0.01510  -0.00228  -0.02768  -0.04862  -0.20030
   3        2PX         0.01062   0.01925   0.00391  -0.01436  -0.08615
   4        2PY         0.07543   0.17127   0.00410   0.00319   0.01559
   5        2PZ        -0.03429  -0.09195   0.00179   0.00297   0.00679
   6        3S         -0.12283   0.03071   0.12234   0.17803   0.73855
   7        3PX         0.30794  -0.13266   0.00953  -0.02959  -0.12505
   8        3PY         1.05586  -0.48110  -0.03461   0.02414  -0.00395
   9        3PZ         2.30217  -0.87144  -0.06720   0.04098  -0.04669
  10        4XX        -0.01406  -0.11389  -0.02469   0.04594   0.12021
  11        4YY         0.02880   0.17499  -0.41934   0.36457  -0.60581
  12        4ZZ        -0.01246  -0.06204   0.44210  -0.41914   0.41592
  13        4XY        -0.14160  -0.49347  -0.14503   0.13914  -0.10179
  14        4XZ         0.18493   0.21930  -0.01894   0.05374   0.12668
  15        4YZ        -0.02043   0.02389  -0.40362   0.58750   0.45442
  16 2   N  1S         -0.00353   0.00109   0.00247  -0.00660  -0.02964
  17        2S         -0.04741   0.01328   0.04191  -0.05918  -0.25275
  18        2PX         0.07443  -0.00958  -0.00122   0.00637   0.05609
  19        2PY         0.23224   0.05307  -0.00126   0.00172  -0.01146
  20        2PZ         0.34783  -0.20041  -0.00822   0.00483  -0.01112
  21        3S          0.22236  -0.06989  -0.14219   0.16596   0.66985
  22        3PX        -0.51005   0.19226   0.02865   0.08140   0.33773
  23        3PY        -1.12064   0.43997   0.02471  -0.03225  -0.04033
  24        3PZ        -2.27217   0.87254   0.05519  -0.04520  -0.00265
  25        4XX         0.10496   0.07644  -0.01432  -0.00945   0.07785
  26        4YY        -0.09450  -0.13172  -0.46995  -0.57274  -0.29478
  27        4ZZ        -0.03071   0.06059   0.49850   0.55654   0.08631
  28        4XY         0.28149   0.45125  -0.13291  -0.14632  -0.00611
  29        4XZ         0.11055  -0.35949  -0.01171   0.03342   0.10120
  30        4YZ        -0.05674   0.01475  -0.38666  -0.27358   0.61902
  31 3   H  1S         -0.61168   0.24479   0.00281  -0.09519  -0.35956
  32        2S         -0.85649   0.34392   0.00865  -0.04307  -0.06938
  33 4   H  1S          0.60184  -0.24077  -0.02503  -0.07379  -0.40301
  34        2S          0.83226  -0.32790  -0.04806  -0.01400  -0.11348
  35 5   H  1S         -0.62589   0.24116   0.03042  -0.10050  -0.39311
  36        2S         -0.57814   0.22184   0.02820  -0.04543  -0.12270
  37 6   H  1S          0.60842  -0.23588  -0.00152  -0.08545  -0.40474
  38        2S          0.56037  -0.21617   0.00239  -0.02667  -0.14087
                          31        32        33        34        35
                           V         V         V         V         V
     Eigenvalues --     1.72815   1.87114   2.04813   2.10398   2.38222
   1 1   C  1S          0.00025  -0.05378   0.03625   0.00138   0.02969
   2        2S          0.00557  -0.33922   0.14372   0.00391  -0.64528
   3        2PX         0.03998  -0.20329   0.04746   0.02011  -0.98064
   4        2PY         0.11120   0.04049  -0.01324   0.14350   0.17160
   5        2PZ         0.24164   0.03244  -0.00134  -0.06450   0.10179
   6        3S         -0.01551   0.16297  -1.15995  -0.04160  -2.25622
   7        3PX        -0.08923   0.30567  -0.18315   0.02048  -1.27150
   8        3PY        -0.16897  -0.05118   0.03990   0.25962   0.24521
   9        3PZ        -0.31364  -0.02626   0.07031  -0.14691   0.17704
  10        4XX        -0.26054   0.67846   0.16488   0.17347  -0.98861
  11        4YY         0.11461  -0.42702   0.38034  -0.23900   0.47330
  12        4ZZ         0.14733  -0.53416  -0.45591   0.06956   0.44132
  13        4XY        -0.32651  -0.24493  -0.05885   0.79545   0.29349
  14        4XZ        -0.66424  -0.17527  -0.18010  -0.45731   0.15222
  15        4YZ         0.17388  -0.00644  -0.58162  -0.03154  -0.07165
  16 2   N  1S         -0.00089  -0.00797  -0.04337  -0.00165  -0.08702
  17        2S          0.00812  -0.44479  -0.50028  -0.01738  -0.15797
  18        2PX         0.00240   0.41164   0.15796   0.00002  -0.49422
  19        2PY         0.03487  -0.07311  -0.02511  -0.05012   0.09035
  20        2PZ         0.07060  -0.04388  -0.01505   0.02801   0.05813
  21        3S          0.02370   0.26624   1.57546   0.05750   2.76263
  22        3PX         0.18571  -0.64878  -0.14427  -0.04481  -1.77446
  23        3PY         0.47568   0.11781   0.03262  -0.33029   0.30090
  24        3PZ         0.88694   0.07651  -0.01247   0.19481   0.16806
  25        4XX         0.16616   0.43518  -0.04590   0.17169   1.17003
  26        4YY        -0.06468  -0.21383  -0.45726  -0.26898  -0.60303
  27        4ZZ        -0.09840  -0.47941   0.35272   0.09165  -0.62159
  28        4XY         0.21941  -0.15839  -0.03550   0.79429  -0.40019
  29        4XZ         0.49180  -0.14233   0.19003  -0.41445  -0.27183
  30        4YZ        -0.10373  -0.21206   0.67261   0.00562   0.06278
  31 3   H  1S         -0.46670   0.13300   0.41656  -0.00254   0.02835
  32        2S          0.33866  -0.07115  -0.00567   0.01656  -0.05762
  33 4   H  1S          0.43184   0.17667   0.45525   0.03455   0.04700
  34        2S         -0.32919  -0.08975   0.02310  -0.01921  -0.02168
  35 5   H  1S          0.62922   0.25119  -0.53171  -0.00261  -0.03959
  36        2S          0.17643  -0.02609  -0.01930   0.00040   0.17618
  37 6   H  1S         -0.64340   0.23094  -0.52534  -0.03698   0.01648
  38        2S         -0.17506  -0.02728  -0.01325   0.00143   0.17722
                          36        37        38
                           V         V         V
     Eigenvalues --     2.42121   3.46098   3.80823
   1 1   C  1S          0.00263  -0.08202  -0.45834
   2        2S         -0.02669   0.77185   2.92828
   3        2PX        -0.00906   0.28035  -0.24600
   4        2PY         0.06745  -0.05135   0.04404
   5        2PZ         0.12024  -0.03273   0.02900
   6        3S         -0.08396  -0.99417   1.72967
   7        3PX        -0.12859  -0.55338  -0.10409
   8        3PY        -0.26077   0.10703   0.01837
   9        3PZ        -0.56825   0.07938   0.00361
  10        4XX         0.23000  -0.09727  -2.10926
  11        4YY        -0.09542  -0.33968  -1.74062
  12        4ZZ        -0.12717  -0.38186  -1.76678
  13        4XY         0.36049  -0.05432   0.07827
  14        4XZ         0.77395  -0.04075   0.04352
  15        4YZ        -0.19343  -0.01538  -0.03283
  16 2   N  1S         -0.00296  -0.48125   0.09866
  17        2S         -0.00133   0.98777  -0.08960
  18        2PX        -0.03205   0.11767  -0.30424
  19        2PY        -0.02900  -0.02166   0.05469
  20        2PZ        -0.07027  -0.01243   0.03383
  21        3S          0.07801   3.86766  -0.93689
  22        3PX         0.06391  -0.28518  -0.09935
  23        3PY         0.30756   0.04934   0.01670
  24        3PZ         0.59435   0.02200   0.01207
  25        4XX         0.37381  -1.64273   0.65941
  26        4YY        -0.16707  -1.53570   0.27357
  27        4ZZ        -0.20687  -1.52496   0.29082
  28        4XY         0.43409   0.02335  -0.07911
  29        4XZ         0.91587   0.01680  -0.04350
  30        4YZ        -0.21308   0.00319   0.02541
  31 3   H  1S          0.42150   0.08093   0.17690
  32        2S          0.12267  -0.03756  -0.48220
  33 4   H  1S         -0.39587   0.08502   0.17204
  34        2S         -0.11643  -0.01670  -0.48533
  35 5   H  1S          0.63835   0.15011  -0.04068
  36        2S         -0.02794  -0.55350   0.15696
  37 6   H  1S         -0.64446   0.15531  -0.04172
  38        2S          0.04017  -0.55140   0.15517
     Density Matrix:
                           1         2         3         4         5
   1 1   C  1S          2.05358
   2        2S         -0.07541   0.36315
   3        2PX         0.01846  -0.02979   0.42378
   4        2PY        -0.00349   0.00575  -0.01445   0.27974
   5        2PZ        -0.00196   0.00342   0.02146   0.10577   0.44822
   6        3S         -0.15076   0.27394  -0.15258   0.02745   0.01670
   7        3PX         0.02009  -0.03892   0.08953   0.01239   0.01952
   8        3PY        -0.00376   0.00734   0.01292   0.12853   0.04371
   9        3PZ        -0.00231   0.00474   0.02076   0.04359   0.19959
  10        4XX        -0.01811   0.00005   0.01985  -0.00301  -0.00883
  11        4YY        -0.01307  -0.01450  -0.00735  -0.00209   0.00558
  12        4ZZ        -0.02090   0.00267  -0.02265   0.00687   0.00421
  13        4XY         0.00059  -0.00205  -0.00650   0.01203  -0.01376
  14        4XZ        -0.00117   0.00210  -0.01167  -0.01494  -0.01312
  15        4YZ        -0.00544   0.01209  -0.00905   0.00330   0.00504
  16 2   N  1S          0.01573  -0.02921  -0.07555   0.01358   0.00779
  17        2S         -0.03185   0.05721   0.16767  -0.03006  -0.01698
  18        2PX         0.08203  -0.17903  -0.33005   0.09359   0.02216
  19        2PY        -0.01445   0.03144   0.09715   0.27264  -0.13474
  20        2PZ        -0.00949   0.02075   0.02132  -0.14703   0.08311
  21        3S         -0.00287   0.00274   0.15425  -0.02726  -0.01381
  22        3PX         0.02953  -0.06473  -0.14270   0.04589   0.00175
  23        3PY        -0.00499   0.01091   0.04868   0.17708  -0.09767
  24        3PZ        -0.00333   0.00732   0.00043  -0.10805   0.03072
  25        4XX        -0.00598   0.00950  -0.00078  -0.00461  -0.00484
  26        4YY         0.00160  -0.00354  -0.00434   0.00480   0.00174
  27        4ZZ         0.00210  -0.00546  -0.00708   0.00200   0.00436
  28        4XY         0.00168  -0.00302  -0.00397  -0.01133  -0.00296
  29        4XZ         0.00111  -0.00222  -0.00397  -0.00283  -0.01778
  30        4YZ         0.00014  -0.00106  -0.00081   0.00216   0.00380
  31 3   H  1S         -0.06525   0.13316  -0.08946   0.12543   0.23098
  32        2S         -0.01004   0.02892  -0.04485   0.06521   0.11865
  33 4   H  1S         -0.06453   0.13147  -0.17049  -0.07939  -0.20638
  34        2S         -0.00981   0.02838  -0.08802  -0.04249  -0.10696
  35 5   H  1S          0.01264  -0.03141  -0.04411   0.01952   0.02976
  36        2S          0.00405  -0.00944  -0.03299   0.02548   0.04136
  37 6   H  1S          0.01233  -0.03081  -0.05358  -0.00157  -0.01971
  38        2S          0.00387  -0.00907  -0.04837  -0.01132  -0.03349
                           6         7         8         9        10
   6        3S          0.25585
   7        3PX        -0.05328   0.02410
   8        3PY         0.00955   0.00928   0.06096
   9        3PZ         0.00588   0.01097   0.01993   0.09215
  10        4XX        -0.00648   0.00312  -0.00050  -0.00384   0.00160
  11        4YY        -0.00737  -0.00010  -0.00154   0.00240  -0.00047
  12        4ZZ         0.01049  -0.00440   0.00225   0.00152  -0.00109
  13        4XY         0.00089  -0.00092   0.00509  -0.00722   0.00007
  14        4XZ         0.00405  -0.00386  -0.00813  -0.00754   0.00000
  15        4YZ         0.01203  -0.00263   0.00143   0.00248  -0.00054
  16 2   N  1S          0.01587  -0.00458   0.00068  -0.00014  -0.00769
  17        2S         -0.04397   0.00970  -0.00140   0.00047   0.01642
  18        2PX        -0.04412  -0.05789   0.02262  -0.00767  -0.01197
  19        2PY         0.00729   0.02532   0.12540  -0.07811   0.01036
  20        2PZ         0.00630  -0.00859  -0.08691   0.00456   0.00542
  21        3S         -0.08142   0.01147  -0.00155   0.00107   0.01562
  22        3PX        -0.01050  -0.02674   0.01230  -0.00751  -0.00456
  23        3PY         0.00120   0.01419   0.08172  -0.05393   0.00598
  24        3PZ         0.00183  -0.00841  -0.06099  -0.00441   0.00280
  25        4XX         0.00672  -0.00160  -0.00221  -0.00254   0.00030
  26        4YY        -0.00033   0.00009   0.00200   0.00074  -0.00046
  27        4ZZ        -0.00262  -0.00125   0.00069   0.00206  -0.00029
  28        4XY        -0.00173  -0.00130  -0.00588  -0.00207  -0.00001
  29        4XZ        -0.00151  -0.00165  -0.00202  -0.00951   0.00055
  30        4YZ        -0.00171  -0.00057   0.00122   0.00209   0.00014
  31 3   H  1S          0.14036  -0.01890   0.05453   0.10362  -0.00899
  32        2S          0.04184  -0.00582   0.02838   0.05396  -0.00497
  33 4   H  1S          0.13836  -0.05643  -0.04138  -0.09709  -0.00223
  34        2S          0.04134  -0.02609  -0.02328  -0.05184  -0.00110
  35 5   H  1S         -0.02248  -0.00874   0.01685   0.03080  -0.00303
  36        2S          0.00444  -0.00323   0.01284   0.02343  -0.00341
  37 6   H  1S         -0.02139  -0.02024  -0.01148  -0.02759   0.00443
  38        2S          0.00513  -0.01240  -0.01031  -0.02225  -0.00019
                          11        12        13        14        15
  11        4YY         0.00104
  12        4ZZ         0.00054   0.00160
  13        4XY        -0.00024   0.00040   0.00160
  14        4XZ         0.00003   0.00009   0.00021   0.00214
  15        4YZ        -0.00022   0.00067  -0.00010  -0.00014   0.00068
  16 2   N  1S          0.00343   0.00499   0.00248   0.00181   0.00060
  17        2S         -0.00716  -0.01096  -0.00529  -0.00395  -0.00160
  18        2PX         0.01174   0.01663   0.01032   0.00666   0.00071
  19        2PY        -0.01082  -0.00245   0.02526  -0.00406  -0.00288
  20        2PZ        -0.00058  -0.00675  -0.00391   0.02442  -0.00433
  21        3S         -0.00479  -0.01057  -0.00483  -0.00411  -0.00301
  22        3PX         0.00426   0.00717   0.00520   0.00323   0.00056
  23        3PY        -0.00639  -0.00080   0.01661  -0.00311  -0.00176
  24        3PZ         0.00020  -0.00379  -0.00290   0.01540  -0.00265
  25        4XX        -0.00042  -0.00009   0.00000   0.00065   0.00017
  26        4YY         0.00024   0.00037   0.00026  -0.00026   0.00005
  27        4ZZ         0.00039   0.00039  -0.00009  -0.00020   0.00007
  28        4XY         0.00025  -0.00012  -0.00029   0.00110  -0.00022
  29        4XZ        -0.00023  -0.00017   0.00103   0.00133  -0.00039
  30        4YZ         0.00006   0.00007  -0.00019  -0.00039   0.00009
  31 3   H  1S         -0.00095   0.00979  -0.00338  -0.00833   0.00953
  32        2S          0.00107   0.00482  -0.00173  -0.00516   0.00377
  33 4   H  1S         -0.00418   0.00636   0.00610   0.01415   0.00449
  34        2S         -0.00074   0.00285   0.00362   0.00781   0.00090
  35 5   H  1S          0.00328   0.00388  -0.00480  -0.01078   0.00272
  36        2S          0.00188   0.00305  -0.00148  -0.00444   0.00173
  37 6   H  1S         -0.00012  -0.00020   0.00529   0.01110  -0.00242
  38        2S          0.00041   0.00132   0.00288   0.00571  -0.00056
                          16        17        18        19        20
  16 2   N  1S          2.05798
  17        2S         -0.11870   0.40585
  18        2PX        -0.00521   0.01056   0.52627
  19        2PY         0.00099  -0.00210   0.00428   0.55455
  20        2PZ         0.00060  -0.00118   0.00295  -0.00654   0.55363
  21        3S         -0.17678   0.40154   0.06176  -0.01215  -0.00770
  22        3PX        -0.00731   0.01522   0.22866   0.01870   0.00568
  23        3PY         0.00151  -0.00321   0.01847   0.34950  -0.03075
  24        3PZ         0.00113  -0.00236   0.00584  -0.03042   0.31912
  25        4XX        -0.01863   0.00371  -0.00370   0.00107   0.00844
  26        4YY        -0.01261  -0.00953   0.00287   0.00233  -0.00525
  27        4ZZ        -0.01951   0.00545   0.01484  -0.00585  -0.00474
  28        4XY         0.00052  -0.00117   0.00342  -0.00902   0.01523
  29        4XZ        -0.00113   0.00241   0.00901   0.01451   0.01361
  30        4YZ        -0.00607   0.01317   0.00937  -0.00355  -0.00534
  31 3   H  1S          0.01094  -0.02701   0.03324  -0.01813  -0.03044
  32        2S          0.00705  -0.01615   0.03934  -0.01934  -0.03288
  33 4   H  1S          0.01097  -0.02738   0.04288   0.00509   0.02197
  34        2S          0.00688  -0.01595   0.05066   0.00343   0.02314
  35 5   H  1S         -0.05401   0.11738   0.10012  -0.13556  -0.23609
  36        2S          0.00114  -0.00515   0.03357  -0.04365  -0.07958
  37 6   H  1S         -0.05394   0.11717   0.18969   0.08549   0.20334
  38        2S          0.00130  -0.00557   0.06352   0.02632   0.06858
                          21        22        23        24        25
  21        3S          0.40881
  22        3PX         0.03570   0.10061
  23        3PY        -0.00742   0.01839   0.22228
  24        3PZ        -0.00512   0.00444  -0.03379   0.18669
  25        4XX         0.00275  -0.00106   0.00022   0.00508   0.00062
  26        4YY        -0.00850   0.00097   0.00180  -0.00322  -0.00012
  27        4ZZ         0.00763   0.00632  -0.00311  -0.00254  -0.00005
  28        4XY        -0.00066   0.00133  -0.00611   0.00969   0.00024
  29        4XZ         0.00287   0.00469   0.00913   0.00819   0.00042
  30        4YZ         0.01405   0.00424  -0.00186  -0.00312  -0.00006
  31 3   H  1S         -0.04086   0.01577  -0.01508  -0.02996  -0.00045
  32        2S         -0.01684   0.01614  -0.01234  -0.02455  -0.00150
  33 4   H  1S         -0.04296   0.02612   0.00772   0.02532   0.00680
  34        2S         -0.01758   0.02486   0.00505   0.02030   0.00272
  35 5   H  1S          0.13147   0.04015  -0.07233  -0.13105  -0.00379
  36        2S         -0.00089   0.01227  -0.02360  -0.04585  -0.00198
  37 6   H  1S          0.12998   0.09018   0.04983   0.11592   0.00375
  38        2S         -0.00198   0.02959   0.01611   0.04116   0.00143
                          26        27        28        29        30
  26        4YY         0.00044
  27        4ZZ         0.00014   0.00078
  28        4XY        -0.00018  -0.00001   0.00074
  29        4XZ        -0.00018  -0.00012   0.00050   0.00157
  30        4YZ        -0.00018   0.00056  -0.00014  -0.00015   0.00070
  31 3   H  1S          0.00186   0.00244  -0.00524  -0.01033   0.00255
  32        2S          0.00139   0.00219  -0.00268  -0.00558   0.00180
  33 4   H  1S         -0.00136  -0.00161   0.00409   0.00987  -0.00220
  34        2S         -0.00049  -0.00011   0.00283   0.00602  -0.00090
  35 5   H  1S         -0.00013   0.00826  -0.00459  -0.00843   0.00900
  36        2S          0.00114   0.00236  -0.00204  -0.00428   0.00188
  37 6   H  1S         -0.00332   0.00399   0.00564   0.01245   0.00420
  38        2S         -0.00034   0.00047   0.00259   0.00507  -0.00029
                          31        32        33        34        35
  31 3   H  1S          0.20567
  32        2S          0.09301   0.04624
  33 4   H  1S         -0.03848  -0.03497   0.20641
  34        2S         -0.03526  -0.02190   0.09450   0.04756
  35 5   H  1S          0.03543   0.03144  -0.02660  -0.01455   0.19015
  36        2S          0.03506   0.02199  -0.01801  -0.01024   0.05334
  37 6   H  1S         -0.02589  -0.01447   0.03581   0.03221  -0.04228
  38        2S         -0.01761  -0.01004   0.03594   0.02266  -0.02880
                          36        37        38
  36        2S          0.02167
  37 6   H  1S         -0.02892   0.19069
  38        2S         -0.01165   0.05352   0.02193
    Full Mulliken population analysis:
                           1         2         3         4         5
   1 1   C  1S          2.05358
   2        2S         -0.01652   0.36315
   3        2PX         0.00000   0.00000   0.42378
   4        2PY         0.00000   0.00000   0.00000   0.27974
   5        2PZ         0.00000   0.00000   0.00000   0.00000   0.44822
   6        3S         -0.02778   0.22251   0.00000   0.00000   0.00000
   7        3PX         0.00000   0.00000   0.05101   0.00000   0.00000
   8        3PY         0.00000   0.00000   0.00000   0.07323   0.00000
   9        3PZ         0.00000   0.00000   0.00000   0.00000   0.11372
  10        4XX        -0.00143   0.00003   0.00000   0.00000   0.00000
  11        4YY        -0.00103  -0.01030   0.00000   0.00000   0.00000
  12        4ZZ        -0.00165   0.00189   0.00000   0.00000   0.00000
  13        4XY         0.00000   0.00000   0.00000   0.00000   0.00000
  14        4XZ         0.00000   0.00000   0.00000   0.00000   0.00000
  15        4YZ         0.00000   0.00000   0.00000   0.00000   0.00000
  16 2   N  1S          0.00000  -0.00057  -0.00310  -0.00010  -0.00004
  17        2S         -0.00036   0.01021   0.04463   0.00144   0.00051
  18        2PX        -0.00215   0.04049   0.09446   0.00644   0.00095
  19        2PY        -0.00007   0.00128   0.00669   0.02318   0.00104
  20        2PZ        -0.00003   0.00053   0.00092   0.00113   0.00769
  21        3S         -0.00019   0.00100   0.04424   0.00140   0.00044
  22        3PX        -0.00404   0.03640   0.02874   0.00382   0.00009
  23        3PY        -0.00012   0.00110   0.00405   0.04386   0.00091
  24        3PZ        -0.00005   0.00046   0.00002   0.00101   0.00789
  25        4XX        -0.00041   0.00343  -0.00032   0.00054   0.00035
  26        4YY         0.00001  -0.00043  -0.00077   0.00006  -0.00003
  27        4ZZ         0.00001  -0.00063  -0.00119  -0.00006   0.00004
  28        4XY        -0.00003   0.00023   0.00045   0.00208  -0.00005
  29        4XZ        -0.00001   0.00011   0.00028  -0.00005   0.00356
  30        4YZ         0.00000  -0.00001  -0.00001   0.00004   0.00014
  31 3   H  1S         -0.00215   0.03654   0.01144   0.02055   0.07071
  32        2S         -0.00093   0.01378   0.00412   0.00767   0.02609
  33 4   H  1S         -0.00212   0.03609   0.03894   0.00785   0.05655
  34        2S         -0.00091   0.01353   0.01443   0.00302   0.02104
  35 5   H  1S          0.00000  -0.00041  -0.00094  -0.00018  -0.00038
  36        2S          0.00008  -0.00127  -0.00353  -0.00119  -0.00262
  37 6   H  1S          0.00000  -0.00040  -0.00139   0.00000  -0.00015
  38        2S          0.00007  -0.00123  -0.00620  -0.00006  -0.00124
                           6         7         8         9        10
   6        3S          0.25585
   7        3PX         0.00000   0.02410
   8        3PY         0.00000   0.00000   0.06096
   9        3PZ         0.00000   0.00000   0.00000   0.09215
  10        4XX        -0.00408   0.00000   0.00000   0.00000   0.00160
  11        4YY        -0.00464   0.00000   0.00000   0.00000  -0.00016
  12        4ZZ         0.00661   0.00000   0.00000   0.00000  -0.00036
  13        4XY         0.00000   0.00000   0.00000   0.00000   0.00000
  14        4XZ         0.00000   0.00000   0.00000   0.00000   0.00000
  15        4YZ         0.00000   0.00000   0.00000   0.00000   0.00000
  16 2   N  1S          0.00088  -0.00048  -0.00001   0.00000  -0.00040
  17        2S         -0.01384   0.00482   0.00013  -0.00003   0.00534
  18        2PX         0.00813   0.00638   0.00121  -0.00026   0.00434
  19        2PY         0.00024   0.00136   0.02252   0.00047   0.00104
  20        2PZ         0.00013  -0.00029   0.00052   0.00085   0.00034
  21        3S         -0.04642   0.00709   0.00017  -0.00007   0.00586
  22        3PX         0.00580   0.00086   0.00132  -0.00050   0.00191
  23        3PY         0.00012   0.00152   0.04471   0.00065   0.00070
  24        3PZ         0.00011  -0.00056   0.00073  -0.00246   0.00020
  25        4XX         0.00248  -0.00065   0.00024   0.00017   0.00014
  26        4YY        -0.00009   0.00004  -0.00009  -0.00004  -0.00009
  27        4ZZ        -0.00073  -0.00056  -0.00006  -0.00006  -0.00005
  28        4XY         0.00005   0.00002   0.00091  -0.00001   0.00000
  29        4XZ         0.00003   0.00002  -0.00001   0.00152  -0.00005
  30        4YZ        -0.00001   0.00000   0.00002   0.00006   0.00000
  31 3   H  1S          0.05298   0.00337   0.01244   0.04416  -0.00142
  32        2S          0.02950   0.00117   0.00732   0.02600  -0.00180
  33 4   H  1S          0.05224   0.01793   0.00570   0.03702  -0.00055
  34        2S          0.02915   0.00937   0.00362   0.02235  -0.00042
  35 5   H  1S         -0.00209  -0.00165  -0.00139  -0.00344  -0.00006
  36        2S          0.00134  -0.00120  -0.00209  -0.00516  -0.00045
  37 6   H  1S         -0.00200  -0.00457  -0.00011  -0.00180   0.00011
  38        2S          0.00155  -0.00550  -0.00019  -0.00286  -0.00003
                          11        12        13        14        15
  11        4YY         0.00104
  12        4ZZ         0.00018   0.00160
  13        4XY         0.00000   0.00000   0.00160
  14        4XZ         0.00000   0.00000   0.00000   0.00214
  15        4YZ         0.00000   0.00000   0.00000   0.00000   0.00068
  16 2   N  1S          0.00001   0.00001  -0.00004  -0.00002   0.00000
  17        2S         -0.00053  -0.00076   0.00043   0.00020  -0.00001
  18        2PX        -0.00129  -0.00167   0.00118   0.00047  -0.00001
  19        2PY         0.00017  -0.00004   0.00369   0.00007   0.00005
  20        2PZ        -0.00001   0.00007   0.00006   0.00395   0.00013
  21        3S         -0.00122  -0.00266   0.00019   0.00010  -0.00001
  22        3PX        -0.00187  -0.00312   0.00016   0.00006   0.00000
  23        3PY        -0.00024  -0.00006   0.00310   0.00002   0.00004
  24        3PZ         0.00001  -0.00009   0.00002   0.00298   0.00009
  25        4XX        -0.00008  -0.00002   0.00000  -0.00006   0.00000
  26        4YY         0.00002   0.00001   0.00001   0.00001   0.00000
  27        4ZZ         0.00002   0.00004   0.00000  -0.00001   0.00000
  28        4XY         0.00001   0.00001   0.00008   0.00003  -0.00001
  29        4XZ         0.00001   0.00000   0.00003  -0.00042  -0.00003
  30        4YZ         0.00000   0.00000  -0.00001  -0.00003   0.00001
  31 3   H  1S         -0.00017   0.00343   0.00030   0.00140   0.00205
  32        2S          0.00039   0.00196   0.00004   0.00021   0.00019
  33 4   H  1S         -0.00060   0.00193   0.00059   0.00379   0.00052
  34        2S         -0.00027   0.00113   0.00008   0.00050   0.00002
  35 5   H  1S          0.00002   0.00003   0.00006   0.00018   0.00002
  36        2S          0.00018   0.00032   0.00005   0.00020   0.00004
  37 6   H  1S          0.00000   0.00000   0.00001   0.00013   0.00000
  38        2S          0.00004   0.00012   0.00001   0.00018   0.00000
                          16        17        18        19        20
  16 2   N  1S          2.05798
  17        2S         -0.02638   0.40585
  18        2PX         0.00000   0.00000   0.52627
  19        2PY         0.00000   0.00000   0.00000   0.55455
  20        2PZ         0.00000   0.00000   0.00000   0.00000   0.55363
  21        3S         -0.03038   0.31140   0.00000   0.00000   0.00000
  22        3PX         0.00000   0.00000   0.11874   0.00000   0.00000
  23        3PY         0.00000   0.00000   0.00000   0.18149   0.00000
  24        3PZ         0.00000   0.00000   0.00000   0.00000   0.16572
  25        4XX        -0.00094   0.00236   0.00000   0.00000   0.00000
  26        4YY        -0.00064  -0.00606   0.00000   0.00000   0.00000
  27        4ZZ        -0.00098   0.00347   0.00000   0.00000   0.00000
  28        4XY         0.00000   0.00000   0.00000   0.00000   0.00000
  29        4XZ         0.00000   0.00000   0.00000   0.00000   0.00000
  30        4YZ         0.00000   0.00000   0.00000   0.00000   0.00000
  31 3   H  1S          0.00000  -0.00012  -0.00025  -0.00006  -0.00015
  32        2S          0.00009  -0.00151  -0.00260  -0.00056  -0.00139
  33 4   H  1S          0.00000  -0.00014  -0.00042   0.00000  -0.00007
  34        2S          0.00009  -0.00155  -0.00413  -0.00001  -0.00065
  35 5   H  1S         -0.00178   0.02978   0.01157   0.02059   0.06066
  36        2S          0.00009  -0.00216   0.00236   0.00404   0.01245
  37 6   H  1S         -0.00180   0.02991   0.04051   0.00823   0.04479
  38        2S          0.00010  -0.00234   0.00822   0.00154   0.00915
                          21        22        23        24        25
  21        3S          0.40881
  22        3PX         0.00000   0.10061
  23        3PY         0.00000   0.00000   0.22228
  24        3PZ         0.00000   0.00000   0.00000   0.18669
  25        4XX         0.00184   0.00000   0.00000   0.00000   0.00062
  26        4YY        -0.00570   0.00000   0.00000   0.00000  -0.00004
  27        4ZZ         0.00511   0.00000   0.00000   0.00000  -0.00002
  28        4XY         0.00000   0.00000   0.00000   0.00000   0.00000
  29        4XZ         0.00000   0.00000   0.00000   0.00000   0.00000
  30        4YZ         0.00000   0.00000   0.00000   0.00000   0.00000
  31 3   H  1S         -0.00257  -0.00215  -0.00089  -0.00261  -0.00001
  32        2S         -0.00414  -0.00487  -0.00161  -0.00473  -0.00018
  33 4   H  1S         -0.00284  -0.00442  -0.00004  -0.00148   0.00015
  34        2S         -0.00445  -0.00911  -0.00006  -0.00257   0.00039
  35 5   H  1S          0.05289   0.00801   0.01896   0.05813  -0.00071
  36        2S         -0.00063   0.00239   0.00604   0.01983  -0.00076
  37 6   H  1S          0.05244   0.03311   0.00825   0.04390   0.00114
  38        2S         -0.00138   0.01058   0.00260   0.01518   0.00059
                          26        27        28        29        30
  26        4YY         0.00044
  27        4ZZ         0.00005   0.00078
  28        4XY         0.00000   0.00000   0.00074
  29        4XZ         0.00000   0.00000   0.00000   0.00157
  30        4YZ         0.00000   0.00000   0.00000   0.00000   0.00070
  31 3   H  1S          0.00001   0.00002   0.00005   0.00015   0.00002
  32        2S          0.00012   0.00021   0.00008   0.00026   0.00004
  33 4   H  1S          0.00000  -0.00001   0.00000   0.00012   0.00000
  34        2S         -0.00004  -0.00001   0.00001   0.00022   0.00000
  35 5   H  1S         -0.00003   0.00311   0.00050   0.00155   0.00217
  36        2S          0.00045   0.00100   0.00005   0.00016   0.00009
  37 6   H  1S         -0.00058   0.00125   0.00071   0.00360   0.00055
  38        2S         -0.00013   0.00019   0.00007   0.00030  -0.00001
                          31        32        33        34        35
  31 3   H  1S          0.20567
  32        2S          0.06123   0.04624
  33 4   H  1S         -0.00043  -0.00427   0.20641
  34        2S         -0.00430  -0.00777   0.06221   0.04756
  35 5   H  1S          0.00000   0.00032  -0.00003  -0.00074   0.19015
  36        2S          0.00036   0.00169  -0.00091  -0.00211   0.03511
  37 6   H  1S         -0.00003  -0.00069   0.00000   0.00035  -0.00090
  38        2S         -0.00084  -0.00199   0.00039   0.00180  -0.00456
                          36        37        38
  36        2S          0.02167
  37 6   H  1S         -0.00457   0.19069
  38        2S         -0.00485   0.03523   0.02193
     Gross orbital populations:
                           1
   1 1   C  1S          1.99174
   2        2S          0.75100
   3        2PX         0.75078
   4        2PY         0.47541
   5        2PZ         0.75542
   6        3S          0.56803
   7        3PX         0.11361
   8        3PY         0.23181
   9        3PZ         0.32242
  10        4XX         0.01027
  11        4YY        -0.02032
  12        4ZZ         0.00890
  13        4XY         0.01165
  14        4XZ         0.01609
  15        4YZ         0.00376
  16 2   N  1S          1.99161
  17        2S          0.79466
  18        2PX         0.85896
  19        2PY         0.83147
  20        2PZ         0.86014
  21        3S          0.79035
  22        3PX         0.32253
  23        3PY         0.53736
  24        3PZ         0.48844
  25        4XX         0.01023
  26        4YY        -0.01354
  27        4ZZ         0.01093
  28        4XY         0.00599
  29        4XZ         0.01290
  30        4YZ         0.00376
  31 3   H  1S          0.50872
  32        2S          0.18971
  33 4   H  1S          0.51008
  34        2S          0.19179
  35 5   H  1S          0.47453
  36        2S          0.07646
  37 6   H  1S          0.47592
  38        2S          0.07644
          Condensed to atoms (all electrons):
               1          2          3          4          5          6
     1  C    4.812633   0.485087   0.371349   0.372545  -0.025537  -0.025505
     2  N    0.485087   6.459596  -0.029335  -0.031028   0.310794   0.310675
     3  H    0.371349  -0.029335   0.374354  -0.016772   0.002377  -0.003547
     4  H    0.372545  -0.031028  -0.016772   0.378383  -0.003800   0.002541
     5  H   -0.025537   0.310794   0.002377  -0.003800   0.282038  -0.014885
     6  H   -0.025505   0.310675  -0.003547   0.002541  -0.014885   0.283078
 Mulliken charges:
               1
     1  C    0.009427
     2  N   -0.505788
     3  H    0.301574
     4  H    0.298132
     5  H    0.449013
     6  H    0.447642
 Sum of Mulliken charges =   1.00000
 Mulliken charges with hydrogens summed into heavy atoms:
               1
     1  C    0.609132
     2  N    0.390868
 Electronic spatial extent (au):  <R**2>=            252.5873
 Charge=              1.0000 electrons
 Dipole moment (field-independent basis, Debye):
    X=             -8.0676    Y=              1.2048    Z=              0.6038  Tot=              8.1794
 Quadrupole moment (field-independent basis, Debye-Ang):
   XX=              8.6477   YY=            -10.6624   ZZ=             -8.0286
   XY=             -2.9248   XZ=             -1.0657   YZ=              2.2646
 Traceless Quadrupole moment (field-independent basis, Debye-Ang):
   XX=             11.9954   YY=             -7.3146   ZZ=             -4.6808
   XY=             -2.9248   XZ=             -1.0657   YZ=              2.2646
 Octapole moment (field-independent basis, Debye-Ang**2):
  XXX=              6.4492  YYY=             -8.8495  ZZZ=             -3.7384  XYY=             18.9598
  XXY=              5.1429  XXZ=              1.3637  XZZ=             15.1498  YZZ=             -1.8503
  YYZ=             -0.6305  XYZ=             -3.5429
 Hexadecapole moment (field-independent basis, Debye-Ang**3):
 XXXX=           -114.2690 YYYY=            -17.6134 ZZZZ=            -15.4898 XXXY=             -2.8734
 XXXZ=              3.3249 YYYX=             18.3655 YYYZ=             -2.4153 ZZZX=              7.2525
 ZZZY=             -0.9639 XXYY=            -43.1868 XXZZ=            -34.2586 YYZZ=             -4.6959
 XXYZ=              7.1451 YYXZ=              0.9277 ZZXY=              3.4270
 N-N= 3.854445818263D+01 E-N=-2.923507478506D+02  KE= 9.397553476339D+01
 Orbital energies and kinetic energies (alpha):
                                 1                 2
   1         O               -14.690384         21.955489
   2         O               -10.547920         15.880541
   3         O                -1.245795          2.011496
   4         O                -0.951747          1.641310
   5         O                -0.848072          1.308935
   6         O                -0.787567          1.472180
   7         O                -0.683875          1.227674
   8         O                -0.651352          1.490141
   9         V                -0.320328          1.587065
  10         V                -0.168817          1.123674
  11         V                -0.134750          1.043687
  12         V                -0.102444          1.170530
  13         V                -0.014987          1.106240
  14         V                 0.036887          1.415975
  15         V                 0.275754          1.981363
  16         V                 0.277101          2.181407
  17         V                 0.320688          1.666653
  18         V                 0.383220          1.609754
  19         V                 0.441822          2.638504
  20         V                 0.449688          2.337185
  21         V                 0.557790          2.393670
  22         V                 0.616790          3.181758
  23         V                 0.623298          2.934006
  24         V                 0.669207          2.459457
  25         V                 0.938075          2.274660
  26         V                 1.083586          2.517201
  27         V                 1.146218          2.698044
  28         V                 1.186661          2.637240
  29         V                 1.502294          2.993620
  30         V                 1.588614          3.124066
  31         V                 1.728153          3.490441
  32         V                 1.871141          3.709463
  33         V                 2.048133          3.723322
  34         V                 2.103979          3.671614
  35         V                 2.382223          4.865912
  36         V                 2.421210          4.225426
  37         V                 3.460983          9.901168
  38         V                 3.808229          9.915435
 Total kinetic energy from orbitals= 9.397553476339D+01

 Test job not archived.
 1\1\GINC-EAM\SP\RB3LYP\6-31G(d)\C1H4N1(1+)\DULIKAI\30-Apr-2014\0\\# b3
 lyp/6-31g* scf=(tight,maxcycle=10000) iop(9/40=20) nosymm pop=full\\[0
 ] [0]\\1,1\C,0,-2.4296595,0.3810544,0.2131855\N,0,-1.174535,0.1558442,
 0.0725376\H,0,-2.8061054,0.8631772,1.1140422\H,0,-3.101413,0.0901169,-
 0.5926702\H,0,-0.8044591,-0.3303995,-0.7500395\H,0,-0.4955614,0.462020
 1,0.7728361\\Version=EM64L-G09RevD.01\HF=-94.9738044\RMSD=5.015e-09\Di
 pole=0.1615819,-0.0220243,-0.0215703\Quadrupole=8.9183147,-5.438234,-3
 .4800807,-2.1744988,-0.792349,1.6836413\PG=C01 [X(C1H4N1)]\\@


 ALL OUR THINKING ABOUT NATURE MUST NECESSARILY MOVE IN CIRCLES OR SPIRALS;
 FOR WE CAN ONLY UNDERSTAND NATURE IF WE THINK ABOUT HER, AND WE CAN ONLY
 THINK BECAUSE OUR BRAIN IS BUILT IN ACCORDANCE WITH NATURE'S LAWS.

                                             -- TIMOTHY FERRIS, "GALAXIES"
 Job cpu time:       0 days  0 hours  0 minutes  4.5 seconds.
 File lengths (MBytes):  RWF=      5 Int=      0 D2E=      0 Chk=      1 Scr=      1
 Normal termination of Gaussian 09 at Wed Apr 30 11:40:12 2014.
 Initial command:
 /opt/g09_D01_em64t/g09/l1.exe "/tmp/Gau-20830.inp" -scrdir="/tmp/"
 Entering Link 1 = /opt/g09_D01_em64t/g09/l1.exe PID=     20856.
  
 Copyright (c) 1988,1990,1992,1993,1995,1998,2003,2009,2013,
            Gaussian, Inc.  All Rights Reserved.
  
 This is part of the Gaussian(R) 09 program.  It is based on
 the Gaussian(R) 03 system (copyright 2003, Gaussian, Inc.),
 the Gaussian(R) 98 system (copyright 1998, Gaussian, Inc.),
 the Gaussian(R) 94 system (copyright 1995, Gaussian, Inc.),
 the Gaussian 92(TM) system (copyright 1992, Gaussian, Inc.),
 the Gaussian 90(TM) system (copyright 1990, Gaussian, Inc.),
 the Gaussian 88(TM) system (copyright 1988, Gaussian, Inc.),
 the Gaussian 86(TM) system (copyright 1986, Carnegie Mellon
 University), and the Gaussian 82(TM) system (copyright 1983,
 Carnegie Mellon University). Gaussian is a federally registered
 trademark of Gaussian, Inc.
  
 This software contains proprietary and confidential information,
 including trade secrets, belonging to Gaussian, Inc.
  
 This software is provided under written license and may be
 used, copied, transmitted, or stored only in accord with that
 written license.
  
 The following legend is applicable only to US Government
 contracts under FAR:
  
                    RESTRICTED RIGHTS LEGEND
  
 Use, reproduction and disclosure by the US Government is
 subject to restrictions as set forth in subparagraphs (a)
 and (c) of the Commercial Computer Software - Restricted
 Rights clause in FAR 52.227-19.
  
 Gaussian, Inc.
 340 Quinnipiac St., Bldg. 40, Wallingford CT 06492
  
  
 ---------------------------------------------------------------
 Warning -- This program may not be used in any manner that
 competes with the business of Gaussian, Inc. or will provide
 assistance to any competitor of Gaussian, Inc.  The licensee
 of this program is prohibited from giving any competitor of
 Gaussian, Inc. access to this program.  By using this program,
 the user acknowledges that Gaussian, Inc. is engaged in the
 business of creating and licensing software in the field of
 computational chemistry and represents and warrants to the
 licensee that it is not a competitor of Gaussian, Inc. and that
 it will not use this program in any manner prohibited above.
 ---------------------------------------------------------------
  

 Cite this work as:
 Gaussian 09, Revision D.01,
 M. J. Frisch, G. W. Trucks, H. B. Schlegel, G. E. Scuseria, 
 M. A. Robb, J. R. Cheeseman, G. Scalmani, V. Barone, B. Mennucci, 
 G. A. Petersson, H. Nakatsuji, M. Caricato, X. Li, H. P. Hratchian, 
 A. F. Izmaylov, J. Bloino, G. Zheng, J. L. Sonnenberg, M. Hada, 
 M. Ehara, K. Toyota, R. Fukuda, J. Hasegawa, M. Ishida, T. Nakajima, 
 Y. Honda, O. Kitao, H. Nakai, T. Vreven, J. A. Montgomery, Jr., 
 J. E. Peralta, F. Ogliaro, M. Bearpark, J. J. Heyd, E. Brothers, 
 K. N. Kudin, V. N. Staroverov, T. Keith, R. Kobayashi, J. Normand, 
 K. Raghavachari, A. Rendell, J. C. Burant, S. S. Iyengar, J. Tomasi, 
 M. Cossi, N. Rega, J. M. Millam, M. Klene, J. E. Knox, J. B. Cross, 
 V. Bakken, C. Adamo, J. Jaramillo, R. Gomperts, R. E. Stratmann, 
 O. Yazyev, A. J. Austin, R. Cammi, C. Pomelli, J. W. Ochterski, 
 R. L. Martin, K. Morokuma, V. G. Zakrzewski, G. A. Voth, 
 P. Salvador, J. J. Dannenberg, S. Dapprich, A. D. Daniels, 
 O. Farkas, J. B. Foresman, J. V. Ortiz, J. Cioslowski, 
 and D. J. Fox, Gaussian, Inc., Wallingford CT, 2013.
 
 ******************************************
 Gaussian 09:  EM64L-G09RevD.01 24-Apr-2013
                30-Apr-2014 
 ******************************************
 %chk=gaussian.chk
 %mem=1GB
 %nproc=2
 Will use up to    2 processors via shared memory.
 %nproclinda=1
 Will use up to    1 processors via Linda.
 ----------------------------------------------------------------------
 # force b3lyp/ChkBasis scf=(tight,maxcycle=10000) iop(9/40=20) nosymm 
 pop=full geom=AllCheck Guess=Read
 ----------------------------------------------------------------------
 1/10=7,29=7,30=1,38=1/1,3;
 2/12=2,15=1,40=1/2;
 3/5=7,6=2,11=2,14=-4,16=1,25=1,30=1,67=1,71=1,74=-5,116=-2/1,2,3;
 4/5=1/1;
 5/5=2,7=10000,32=2,38=6/2;
 6/7=3,28=1/1;
 7/29=1,30=1/1,2,3,16;
 1/10=7,30=1/3;
 99//99;
 Structure from the checkpoint file:  "gaussian.chk"
 -------
 [0] [0]
 -------
 Charge =  1 Multiplicity = 1
 Z-Matrix found in file.
 C,0,-2.4296595,0.3810544,0.2131855
 N,0,-1.174535,0.1558442,0.0725376
 H,0,-2.8061054,0.8631772,1.1140422
 H,0,-3.101413,0.0901169,-0.5926702
 H,0,-0.8044591,-0.3303995,-0.7500395
 H,0,-0.4955614,0.4620201,0.7728361
 Recover connectivity data from disk.

 GradGradGradGradGradGradGradGradGradGradGradGradGradGradGradGradGradGrad
 Berny optimization.
 Initialization pass.
 Trust Radius=3.00D-01 FncErr=1.00D-07 GrdErr=1.00D-07
 Number of steps in this run=      2 maximum allowed number of steps=      2.
 GradGradGradGradGradGradGradGradGradGradGradGradGradGradGradGradGradGrad

                          Input orientation:                          
 ---------------------------------------------------------------------
 Center     Atomic      Atomic             Coordinates (Angstroms)
 Number     Number       Type             X           Y           Z
 ---------------------------------------------------------------------
      1          6           0       -2.429660    0.381054    0.213186
      2          7           0       -1.174535    0.155844    0.072538
      3          1           0       -2.806105    0.863177    1.114042
      4          1           0       -3.101413    0.090117   -0.592670
      5          1           0       -0.804459   -0.330400   -0.750040
      6          1           0       -0.495561    0.462020    0.772836
 ---------------------------------------------------------------------
                    Distance matrix (angstroms):
                    1          2          3          4          5
     1  C    0.000000
     2  N    1.282903   0.000000
     3  H    1.088897   2.060843   0.000000
     4  H    1.088715   2.039529   1.896759   0.000000
     5  H    2.018724   1.024706   2.984295   2.340427   0.000000
     6  H    2.015068   1.022334   2.369802   2.965364   1.744275
                    6
     6  H    0.000000
 Symmetry turned off by external request.
 Stoichiometry    CH4N(1+)
 Framework group  C1[X(CH4N)]
 Deg. of freedom    12
 Full point group                 C1      NOp   1
 Rotational constants (GHZ):    151.0512183     31.1408159     25.8252402
 Basis read from chk: "gaussian.chk" (6D, 7F)
    38 basis functions,    72 primitive gaussians,    38 cartesian basis functions
     8 alpha electrons        8 beta electrons
       nuclear repulsion energy        38.5444581826 Hartrees.
 NAtoms=    6 NActive=    6 NUniq=    6 SFac= 1.00D+00 NAtFMM=   60 NAOKFM=F Big=F
 Integral buffers will be    131072 words long.
 Raffenetti 2 integral format.
 Two-electron integral symmetry is turned off.
 One-electron integrals computed using PRISM.
 NBasis=    38 RedAO= T EigKep=  8.44D-03  NBF=    38
 NBsUse=    38 1.00D-06 EigRej= -1.00D+00 NBFU=    38
 Initial guess from the checkpoint file:  "gaussian.chk"
 B after Tr=     0.000000    0.000000    0.000000
         Rot=    1.000000    0.000000    0.000000    0.000000 Ang=   0.00 deg.
 Keep R1 ints in memory in canonical form, NReq=101191747.
 Requested convergence on RMS density matrix=1.00D-08 within**** cycles.
 Requested convergence on MAX density matrix=1.00D-06.
 Requested convergence on             energy=1.00D-06.
 No special actions if energy rises.
 SCF Done:  E(RB3LYP) =  -94.9738044438     A.U. after    1 cycles
            NFock=  1  Conv=0.63D-09     -V/T= 2.0106

 **********************************************************************

            Population analysis using the SCF density.

 **********************************************************************

 Alpha  occ. eigenvalues --  -14.69038 -10.54792  -1.24580  -0.95175  -0.84807
 Alpha  occ. eigenvalues --   -0.78757  -0.68387  -0.65135
 Alpha virt. eigenvalues --   -0.32033  -0.16882  -0.13475  -0.10244  -0.01499
 Alpha virt. eigenvalues --    0.03689   0.27575   0.27710   0.32069   0.38322
 Alpha virt. eigenvalues --    0.44182   0.44969   0.55779   0.61679   0.62330
 Alpha virt. eigenvalues --    0.66921   0.93807   1.08359   1.14622   1.18666
 Alpha virt. eigenvalues --    1.50229   1.58861   1.72815   1.87114   2.04813
 Alpha virt. eigenvalues --    2.10398   2.38222   2.42121   3.46098   3.80823
     Molecular Orbital Coefficients:
                           1         2         3         4         5
                           O         O         O         O         O
     Eigenvalues --   -14.69038 -10.54792  -1.24580  -0.95175  -0.84807
   1 1   C  1S          0.00007   0.99270  -0.10991  -0.16286  -0.00119
   2        2S          0.00033   0.04867   0.22100   0.34674   0.00263
   3        2PX         0.00027   0.00099   0.14889  -0.01512   0.04203
   4        2PY        -0.00005  -0.00018  -0.02682   0.00241   0.10700
   5        2PZ        -0.00003  -0.00011  -0.01729  -0.00028   0.22212
   6        3S         -0.00081  -0.00939   0.08460   0.28459   0.00284
   7        3PX        -0.00038   0.00036  -0.00841  -0.02250   0.01207
   8        3PY         0.00007  -0.00006   0.00186   0.00410   0.03172
   9        3PZ         0.00004  -0.00001   0.00153   0.00174   0.06630
  10        4XX        -0.00006  -0.00890   0.01632  -0.00379   0.00330
  11        4YY         0.00000  -0.00985  -0.01323  -0.01237  -0.00145
  12        4ZZ         0.00000  -0.00961  -0.00898   0.00393  -0.00199
  13        4XY         0.00001  -0.00019  -0.00596  -0.00084   0.00424
  14        4XZ         0.00001  -0.00007  -0.00278   0.00266   0.00783
  15        4YZ         0.00000   0.00020   0.00398   0.01124  -0.00200
  16 2   N  1S          0.99261  -0.00031  -0.19416   0.07529   0.00023
  17        2S          0.03479  -0.00019   0.41397  -0.16800  -0.00038
  18        2PX        -0.00017   0.00040  -0.07490  -0.32063   0.08165
  19        2PY         0.00003  -0.00007   0.01409   0.05561   0.20806
  20        2PZ         0.00002  -0.00005   0.00840   0.03431   0.40596
  21        3S          0.00481   0.00136   0.38639  -0.23167  -0.00082
  22        3PX        -0.00006   0.00031  -0.01625  -0.13228   0.04279
  23        3PY         0.00001  -0.00005   0.00294   0.02268   0.10887
  24        3PZ         0.00001  -0.00004   0.00111   0.01406   0.21199
  25        4XX        -0.00834  -0.00068   0.00858   0.00773   0.00303
  26        4YY        -0.00846  -0.00008  -0.01024   0.00073  -0.00118
  27        4ZZ        -0.00842  -0.00016   0.00319  -0.01292  -0.00182
  28        4XY        -0.00002   0.00012  -0.00253  -0.00307   0.00436
  29        4XZ         0.00000   0.00006   0.00138  -0.00474   0.00830
  30        4YZ         0.00003  -0.00007   0.01210  -0.01110  -0.00191
  31 3   H  1S         -0.00001  -0.00036   0.03404   0.12202   0.09065
  32        2S          0.00001   0.00209  -0.00313   0.02061   0.03363
  33 4   H  1S         -0.00002  -0.00035   0.03518   0.12243  -0.08994
  34        2S          0.00001   0.00211  -0.00201   0.02046  -0.03411
  35 5   H  1S          0.00031   0.00001   0.09724  -0.13428  -0.19430
  36        2S         -0.00058  -0.00003  -0.00976  -0.02025  -0.04934
  37 6   H  1S          0.00031   0.00001   0.09787  -0.13572   0.19370
  38        2S         -0.00058  -0.00002  -0.00951  -0.02030   0.04876
                           6         7         8         9        10
                           O         O         O         V         V
     Eigenvalues --    -0.78757  -0.68387  -0.65135  -0.32033  -0.16882
   1 1   C  1S          0.05225   0.00014   0.00045   0.00090  -0.01803
   2        2S         -0.10061   0.00004  -0.00096  -0.00212   0.05904
   3        2PX         0.42410   0.07263   0.05087   0.06270  -0.14830
   4        2PY        -0.07951   0.13284   0.32206   0.48633   0.02103
   5        2PZ        -0.04918   0.40488  -0.09017  -0.23204   0.00360
   6        3S         -0.19918  -0.00174  -0.00187  -0.00404   0.25293
   7        3PX         0.09766   0.03445   0.02459   0.06715  -0.48608
   8        3PY        -0.01895   0.06909   0.15596   0.51244   0.07489
   9        3PZ        -0.01204   0.19989  -0.03966  -0.24099   0.02467
  10        4XX         0.01830  -0.00894   0.00382  -0.00334   0.01486
  11        4YY        -0.00432   0.00505  -0.00692   0.00541  -0.00096
  12        4ZZ        -0.02418   0.00365   0.00306  -0.00187  -0.01091
  13        4XY        -0.00597  -0.01546   0.02169  -0.01700  -0.00495
  14        4XZ        -0.00705  -0.02534  -0.01734   0.01040  -0.00610
  15        4YZ        -0.01256   0.00606   0.00043   0.00010  -0.00703
  16 2   N  1S         -0.01874  -0.00091   0.00017  -0.00058  -0.11883
  17        2S          0.04603   0.00231  -0.00039   0.00157   0.22720
  18        2PX        -0.37795  -0.05685   0.04447  -0.04120   0.17367
  19        2PY         0.06746  -0.17305   0.44294  -0.35182  -0.03543
  20        2PZ         0.04673  -0.17605  -0.27854   0.18983  -0.03123
  21        3S          0.03739   0.00415  -0.00061   0.00268   1.63927
  22        3PX        -0.16890  -0.03597   0.02980  -0.04621   0.28275
  23        3PY         0.03040  -0.11142   0.29228  -0.40101  -0.05659
  24        3PZ         0.02176  -0.11679  -0.18465   0.21632  -0.04895
  25        4XX        -0.00196  -0.00851  -0.00448  -0.00594  -0.01384
  26        4YY        -0.00253   0.00318   0.00505   0.00805  -0.01901
  27        4ZZ        -0.01054   0.00508  -0.00064  -0.00220  -0.02742
  28        4XY        -0.00083  -0.00970  -0.01543  -0.02564  -0.00106
  29        4XZ        -0.00209  -0.02599   0.00320   0.01193  -0.00142
  30        4YZ        -0.00651   0.00570   0.00112   0.00092  -0.00653
  31 3   H  1S         -0.16450   0.22450   0.03332  -0.00393  -0.01219
  32        2S         -0.07780   0.12290   0.01975  -0.00825  -0.33810
  33 4   H  1S         -0.15639  -0.23069  -0.03481   0.00675  -0.02269
  34        2S         -0.07467  -0.12718  -0.02093   0.01215  -0.40310
  35 5   H  1S         -0.09832   0.14032   0.02181   0.00600  -0.13528
  36        2S         -0.04571   0.07506   0.01304   0.00987  -1.02104
  37 6   H  1S         -0.09445  -0.14289  -0.02200  -0.00801  -0.12346
  38        2S         -0.04443  -0.07696  -0.01364  -0.01337  -0.95606
                          11        12        13        14        15
                           V         V         V         V         V
     Eigenvalues --    -0.13475  -0.10244  -0.01499   0.03689   0.27575
   1 1   C  1S          0.00364  -0.13611  -0.00174  -0.06583  -0.00005
   2        2S         -0.00846   0.27598  -0.00071   0.01274  -0.00204
   3        2PX        -0.03650  -0.15534   0.07324   0.18495  -0.12396
   4        2PY        -0.10284   0.02931   0.16242  -0.04163  -0.87714
   5        2PZ        -0.24020   0.01189   0.37261  -0.03742   0.41903
   6        3S         -0.04359   1.97575   0.04800   2.17042  -0.00593
   7        3PX        -0.05489  -0.33303   0.29367   2.30619   0.13210
   8        3PY        -0.19008   0.06396   0.56982  -0.44307   0.98261
   9        3PZ        -0.46226   0.02352   1.25456  -0.31271  -0.47356
  10        4XX        -0.01049  -0.01043  -0.00146  -0.04906  -0.00793
  11        4YY         0.00479   0.00474   0.00022   0.01380   0.01185
  12        4ZZ         0.00606  -0.00985   0.00093   0.03296  -0.00389
  13        4XY        -0.01467   0.00194   0.00153   0.01478  -0.03757
  14        4XZ        -0.03041  -0.00176   0.00443   0.01227   0.01998
  15        4YZ         0.00787  -0.00959  -0.00043   0.00913   0.00076
  16 2   N  1S          0.00343   0.05658   0.00091   0.06330  -0.00067
  17        2S         -0.00535  -0.11364  -0.00187  -0.06537   0.00182
  18        2PX        -0.07353  -0.00078  -0.03557   0.38652  -0.02307
  19        2PY        -0.16027  -0.00547  -0.13960  -0.06331  -0.21369
  20        2PZ        -0.29603  -0.00659  -0.27058  -0.03515   0.12558
  21        3S         -0.06229  -0.71301  -0.02821  -1.98128   0.00009
  22        3PX        -0.13297   0.13165  -0.11215   1.63765  -0.00826
  23        3PY        -0.30114  -0.03488  -0.39823  -0.27674   0.05979
  24        3PZ        -0.54690  -0.02644  -0.79792  -0.15634  -0.04051
  25        4XX         0.01157   0.01925  -0.00763   0.02105   0.01114
  26        4YY        -0.00399   0.00853   0.00340   0.02538  -0.01807
  27        4ZZ        -0.00543  -0.00213   0.00506   0.00857   0.00685
  28        4XY         0.01500  -0.00328  -0.00944  -0.00035   0.05967
  29        4XZ         0.03281  -0.00391  -0.02313  -0.00342  -0.03043
  30        4YZ        -0.00743  -0.00596   0.00501  -0.01536  -0.00124
  31 3   H  1S          0.09696  -0.12783  -0.06010   0.03981   0.00143
  32        2S          0.75443  -1.25875  -1.45953   0.37032   0.00566
  33 4   H  1S         -0.09083  -0.12757   0.06273   0.04622  -0.00100
  34        2S         -0.68973  -1.26816   1.49171   0.19757  -0.00875
  35 5   H  1S         -0.13930   0.04623  -0.01590  -0.06977   0.00182
  36        2S         -0.96833   0.31208  -0.96100  -0.55983   0.01271
  37 6   H  1S          0.14747   0.04785   0.00871  -0.07044   0.00056
  38        2S          1.05144   0.35399   0.89768  -0.62170  -0.01063
                          16        17        18        19        20
                           V         V         V         V         V
     Eigenvalues --     0.27710   0.32069   0.38322   0.44182   0.44969
   1 1   C  1S         -0.02307  -0.00115  -0.06142  -0.00358   0.06130
   2        2S          0.44145  -0.02756  -0.81488   0.01483  -0.21120
   3        2PX         0.91569  -0.10095   0.09405   0.04770  -0.23119
   4        2PY        -0.17230  -0.24016  -0.00585   0.26081   0.04978
   5        2PZ        -0.08822  -0.49701   0.01170  -0.13246   0.00595
   6        3S          0.43037  -0.01729   1.57569  -0.07585   1.12284
   7        3PX        -0.65180   0.16406  -0.50975  -0.12178   0.72969
[...]
  31 3   H  1S          0.00186   0.00244  -0.00524  -0.01033   0.00255
  32        2S          0.00139   0.00219  -0.00268  -0.00558   0.00180
  33 4   H  1S         -0.00136  -0.00161   0.00409   0.00987  -0.00220
  34        2S         -0.00049  -0.00011   0.00283   0.00602  -0.00090
  35 5   H  1S         -0.00013   0.00826  -0.00459  -0.00843   0.00900
  36        2S          0.00114   0.00236  -0.00204  -0.00428   0.00188
  37 6   H  1S         -0.00332   0.00399   0.00564   0.01245   0.00420
  38        2S         -0.00034   0.00047   0.00259   0.00507  -0.00029
                          31        32        33        34        35
  31 3   H  1S          0.20567
  32        2S          0.09301   0.04624
  33 4   H  1S         -0.03848  -0.03497   0.20641
  34        2S         -0.03526  -0.02190   0.09450   0.04756
  35 5   H  1S          0.03543   0.03144  -0.02660  -0.01455   0.19015
  36        2S          0.03506   0.02199  -0.01801  -0.01024   0.05334
  37 6   H  1S         -0.02589  -0.01447   0.03581   0.03221  -0.04228
  38        2S         -0.01761  -0.01004   0.03594   0.02266  -0.02880
                          36        37        38
  36        2S          0.02167
  37 6   H  1S         -0.02892   0.19069
  38        2S         -0.01165   0.05352   0.02193
    Full Mulliken population analysis:
                           1         2         3         4         5
   1 1   C  1S          2.05358
   2        2S         -0.01652   0.36315
   3        2PX         0.00000   0.00000   0.42378
   4        2PY         0.00000   0.00000   0.00000   0.27974
   5        2PZ         0.00000   0.00000   0.00000   0.00000   0.44822
   6        3S         -0.02778   0.22251   0.00000   0.00000   0.00000
   7        3PX         0.00000   0.00000   0.05101   0.00000   0.00000
   8        3PY         0.00000   0.00000   0.00000   0.07323   0.00000
   9        3PZ         0.00000   0.00000   0.00000   0.00000   0.11372
  10        4XX        -0.00143   0.00003   0.00000   0.00000   0.00000
  11        4YY        -0.00103  -0.01030   0.00000   0.00000   0.00000
  12        4ZZ        -0.00165   0.00189   0.00000   0.00000   0.00000
  13        4XY         0.00000   0.00000   0.00000   0.00000   0.00000
  14        4XZ         0.00000   0.00000   0.00000   0.00000   0.00000
  15        4YZ         0.00000   0.00000   0.00000   0.00000   0.00000
  16 2   N  1S          0.00000  -0.00057  -0.00310  -0.00010  -0.00004
  17        2S         -0.00036   0.01021   0.04463   0.00144   0.00051
  18        2PX        -0.00215   0.04049   0.09446   0.00644   0.00095
  19        2PY        -0.00007   0.00128   0.00669   0.02318   0.00104
  20        2PZ        -0.00003   0.00053   0.00092   0.00113   0.00769
  21        3S         -0.00019   0.00100   0.04424   0.00140   0.00044
  22        3PX        -0.00404   0.03640   0.02874   0.00382   0.00009
  23        3PY        -0.00012   0.00110   0.00405   0.04386   0.00091
  24        3PZ        -0.00005   0.00046   0.00002   0.00101   0.00789
  25        4XX        -0.00041   0.00343  -0.00032   0.00054   0.00035
  26        4YY         0.00001  -0.00043  -0.00077   0.00006  -0.00003
  27        4ZZ         0.00001  -0.00063  -0.00119  -0.00006   0.00004
  28        4XY        -0.00003   0.00023   0.00045   0.00208  -0.00005
  29        4XZ        -0.00001   0.00011   0.00028  -0.00005   0.00356
  30        4YZ         0.00000  -0.00001  -0.00001   0.00004   0.00014
  31 3   H  1S         -0.00215   0.03654   0.01144   0.02055   0.07071
  32        2S         -0.00093   0.01378   0.00412   0.00767   0.02609
  33 4   H  1S         -0.00212   0.03609   0.03894   0.00785   0.05655
  34        2S         -0.00091   0.01353   0.01443   0.00302   0.02104
  35 5   H  1S          0.00000  -0.00041  -0.00094  -0.00018  -0.00038
  36        2S          0.00008  -0.00127  -0.00353  -0.00119  -0.00262
  37 6   H  1S          0.00000  -0.00040  -0.00139   0.00000  -0.00015
  38        2S          0.00007  -0.00123  -0.00620  -0.00006  -0.00124
                           6         7         8         9        10
   6        3S          0.25585
   7        3PX         0.00000   0.02410
   8        3PY         0.00000   0.00000   0.06096
   9        3PZ         0.00000   0.00000   0.00000   0.09215
  10        4XX        -0.00408   0.00000   0.00000   0.00000   0.00160
  11        4YY        -0.00464   0.00000   0.00000   0.00000  -0.00016
  12        4ZZ         0.00661   0.00000   0.00000   0.00000  -0.00036
  13        4XY         0.00000   0.00000   0.00000   0.00000   0.00000
  14        4XZ         0.00000   0.00000   0.00000   0.00000   0.00000
  15        4YZ         0.00000   0.00000   0.00000   0.00000   0.00000
  16 2   N  1S          0.00088  -0.00048  -0.00001   0.00000  -0.00040
  17        2S         -0.01384   0.00482   0.00013  -0.00003   0.00534
  18        2PX         0.00813   0.00638   0.00121  -0.00026   0.00434
  19        2PY         0.00024   0.00136   0.02252   0.00047   0.00104
  20        2PZ         0.00013  -0.00029   0.00052   0.00085   0.00034
  21        3S         -0.04642   0.00709   0.00017  -0.00007   0.00586
  22        3PX         0.00580   0.00086   0.00132  -0.00050   0.00191
  23        3PY         0.00012   0.00152   0.04471   0.00065   0.00070
  24        3PZ         0.00011  -0.00056   0.00073  -0.00246   0.00020
  25        4XX         0.00248  -0.00065   0.00024   0.00017   0.00014
  26        4YY        -0.00009   0.00004  -0.00009  -0.00004  -0.00009
  27        4ZZ        -0.00073  -0.00056  -0.00006  -0.00006  -0.00005
  28        4XY         0.00005   0.00002   0.00091  -0.00001   0.00000
  29        4XZ         0.00003   0.00002  -0.00001   0.00152  -0.00005
  30        4YZ        -0.00001   0.00000   0.00002   0.00006   0.00000
  31 3   H  1S          0.05298   0.00337   0.01244   0.04416  -0.00142
  32        2S          0.02950   0.00117   0.00732   0.02600  -0.00180
  33 4   H  1S          0.05224   0.01793   0.00570   0.03702  -0.00055
  34        2S          0.02915   0.00937   0.00362   0.02235  -0.00042
  35 5   H  1S         -0.00209  -0.00165  -0.00139  -0.00344  -0.00006
  36        2S          0.00134  -0.00120  -0.00209  -0.00516  -0.00045
  37 6   H  1S         -0.00200  -0.00457  -0.00011  -0.00180   0.00011
  38        2S          0.00155  -0.00550  -0.00019  -0.00286  -0.00003
                          11        12        13        14        15
  11        4YY         0.00104
  12        4ZZ         0.00018   0.00160
  13        4XY         0.00000   0.00000   0.00160
  14        4XZ         0.00000   0.00000   0.00000   0.00214
  15        4YZ         0.00000   0.00000   0.00000   0.00000   0.00068
  16 2   N  1S          0.00001   0.00001  -0.00004  -0.00002   0.00000
  17        2S         -0.00053  -0.00076   0.00043   0.00020  -0.00001
  18        2PX        -0.00129  -0.00167   0.00118   0.00047  -0.00001
  19        2PY         0.00017  -0.00004   0.00369   0.00007   0.00005
  20        2PZ        -0.00001   0.00007   0.00006   0.00395   0.00013
  21        3S         -0.00122  -0.00266   0.00019   0.00010  -0.00001
  22        3PX        -0.00187  -0.00312   0.00016   0.00006   0.00000
  23        3PY        -0.00024  -0.00006   0.00310   0.00002   0.00004
  24        3PZ         0.00001  -0.00009   0.00002   0.00298   0.00009
  25        4XX        -0.00008  -0.00002   0.00000  -0.00006   0.00000
  26        4YY         0.00002   0.00001   0.00001   0.00001   0.00000
  27        4ZZ         0.00002   0.00004   0.00000  -0.00001   0.00000
  28        4XY         0.00001   0.00001   0.00008   0.00003  -0.00001
  29        4XZ         0.00001   0.00000   0.00003  -0.00042  -0.00003
  30        4YZ         0.00000   0.00000  -0.00001  -0.00003   0.00001
  31 3   H  1S         -0.00017   0.00343   0.00030   0.00140   0.00205
  32        2S          0.00039   0.00196   0.00004   0.00021   0.00019
  33 4   H  1S         -0.00060   0.00193   0.00059   0.00379   0.00052
  34        2S         -0.00027   0.00113   0.00008   0.00050   0.00002
  35 5   H  1S          0.00002   0.00003   0.00006   0.00018   0.00002
  36        2S          0.00018   0.00032   0.00005   0.00020   0.00004
  37 6   H  1S          0.00000   0.00000   0.00001   0.00013   0.00000
  38        2S          0.00004   0.00012   0.00001   0.00018   0.00000
                          16        17        18        19        20
  16 2   N  1S          2.05798
  17        2S         -0.02638   0.40585
  18        2PX         0.00000   0.00000   0.52627
  19        2PY         0.00000   0.00000   0.00000   0.55455
  20        2PZ         0.00000   0.00000   0.00000   0.00000   0.55363
  21        3S         -0.03038   0.31140   0.00000   0.00000   0.00000
  22        3PX         0.00000   0.00000   0.11874   0.00000   0.00000
  23        3PY         0.00000   0.00000   0.00000   0.18149   0.00000
  24        3PZ         0.00000   0.00000   0.00000   0.00000   0.16572
  25        4XX        -0.00094   0.00236   0.00000   0.00000   0.00000
  26        4YY        -0.00064  -0.00606   0.00000   0.00000   0.00000
  27        4ZZ        -0.00098   0.00347   0.00000   0.00000   0.00000
  28        4XY         0.00000   0.00000   0.00000   0.00000   0.00000
  29        4XZ         0.00000   0.00000   0.00000   0.00000   0.00000
  30        4YZ         0.00000   0.00000   0.00000   0.00000   0.00000
  31 3   H  1S          0.00000  -0.00012  -0.00025  -0.00006  -0.00015
  32        2S          0.00009  -0.00151  -0.00260  -0.00056  -0.00139
  33 4   H  1S          0.00000  -0.00014  -0.00042   0.00000  -0.00007
  34        2S          0.00009  -0.00155  -0.00413  -0.00001  -0.00065
  35 5   H  1S         -0.00178   0.02978   0.01157   0.02059   0.06066
  36        2S          0.00009  -0.00216   0.00236   0.00404   0.01245
  37 6   H  1S         -0.00180   0.02991   0.04051   0.00823   0.04479
  38        2S          0.00010  -0.00234   0.00822   0.00154   0.00915
                          21        22        23        24        25
  21        3S          0.40881
  22        3PX         0.00000   0.10061
  23        3PY         0.00000   0.00000   0.22228
  24        3PZ         0.00000   0.00000   0.00000   0.18669
  25        4XX         0.00184   0.00000   0.00000   0.00000   0.00062
  26        4YY        -0.00570   0.00000   0.00000   0.00000  -0.00004
  27        4ZZ         0.00511   0.00000   0.00000   0.00000  -0.00002
  28        4XY         0.00000   0.00000   0.00000   0.00000   0.00000
  29        4XZ         0.00000   0.00000   0.00000   0.00000   0.00000
  30        4YZ         0.00000   0.00000   0.00000   0.00000   0.00000
  31 3   H  1S         -0.00257  -0.00215  -0.00089  -0.00261  -0.00001
  32        2S         -0.00414  -0.00487  -0.00161  -0.00473  -0.00018
  33 4   H  1S         -0.00284  -0.00442  -0.00004  -0.00148   0.00015
  34        2S         -0.00445  -0.00911  -0.00006  -0.00257   0.00039
  35 5   H  1S          0.05289   0.00801   0.01896   0.05813  -0.00071
  36        2S         -0.00063   0.00239   0.00604   0.01983  -0.00076
  37 6   H  1S          0.05244   0.03311   0.00825   0.04390   0.00114
  38        2S         -0.00138   0.01058   0.00260   0.01518   0.00059
                          26        27        28        29        30
  26        4YY         0.00044
  27        4ZZ         0.00005   0.00078
  28        4XY         0.00000   0.00000   0.00074
  29        4XZ         0.00000   0.00000   0.00000   0.00157
  30        4YZ         0.00000   0.00000   0.00000   0.00000   0.00070
  31 3   H  1S          0.00001   0.00002   0.00005   0.00015   0.00002
  32        2S          0.00012   0.00021   0.00008   0.00026   0.00004
  33 4   H  1S          0.00000  -0.00001   0.00000   0.00012   0.00000
  34        2S         -0.00004  -0.00001   0.00001   0.00022   0.00000
  35 5   H  1S         -0.00003   0.00311   0.00050   0.00155   0.00217
  36        2S          0.00045   0.00100   0.00005   0.00016   0.00009
  37 6   H  1S         -0.00058   0.00125   0.00071   0.00360   0.00055
  38        2S         -0.00013   0.00019   0.00007   0.00030  -0.00001
                          31        32        33        34        35
  31 3   H  1S          0.20567
  32        2S          0.06123   0.04624
  33 4   H  1S         -0.00043  -0.00427   0.20641
  34        2S         -0.00430  -0.00777   0.06221   0.04756
  35 5   H  1S          0.00000   0.00032  -0.00003  -0.00074   0.19015
  36        2S          0.00036   0.00169  -0.00091  -0.00211   0.03511
  37 6   H  1S         -0.00003  -0.00069   0.00000   0.00035  -0.00090
  38        2S         -0.00084  -0.00199   0.00039   0.00180  -0.00456
                          36        37        38
  36        2S          0.02167
  37 6   H  1S         -0.00457   0.19069
  38        2S         -0.00485   0.03523   0.02193
     Gross orbital populations:
                           1
   1 1   C  1S          1.99174
   2        2S          0.75100
   3        2PX         0.75078
   4        2PY         0.47541
   5        2PZ         0.75542
   6        3S          0.56803
   7        3PX         0.11361
   8        3PY         0.23181
   9        3PZ         0.32242
  10        4XX         0.01027
  11        4YY        -0.02032
  12        4ZZ         0.00890
  13        4XY         0.01165
  14        4XZ         0.01609
  15        4YZ         0.00376
  16 2   N  1S          1.99161
  17        2S          0.79466
  18        2PX         0.85896
  19        2PY         0.83147
  20        2PZ         0.86014
  21        3S          0.79035
  22        3PX         0.32253
  23        3PY         0.53736
  24        3PZ         0.48844
  25        4XX         0.01023
  26        4YY        -0.01354
  27        4ZZ         0.01093
  28        4XY         0.00599
  29        4XZ         0.01290
  30        4YZ         0.00376
  31 3   H  1S          0.50872
  32        2S          0.18971
  33 4   H  1S          0.51008
  34        2S          0.19179
  35 5   H  1S          0.47453
  36        2S          0.07646
  37 6   H  1S          0.47592
  38        2S          0.07644
          Condensed to atoms (all electrons):
               1          2          3          4          5          6
     1  C    4.812633   0.485087   0.371349   0.372545  -0.025537  -0.025505
     2  N    0.485087   6.459596  -0.029335  -0.031028   0.310794   0.310675
     3  H    0.371349  -0.029335   0.374354  -0.016772   0.002377  -0.003547
     4  H    0.372545  -0.031028  -0.016772   0.378383  -0.003800   0.002541
     5  H   -0.025537   0.310794   0.002377  -0.003800   0.282038  -0.014885
     6  H   -0.025505   0.310675  -0.003547   0.002541  -0.014885   0.283078
 Mulliken charges:
               1
     1  C    0.009427
     2  N   -0.505788
     3  H    0.301574
     4  H    0.298132
     5  H    0.449013
     6  H    0.447642
 Sum of Mulliken charges =   1.00000
 Mulliken charges with hydrogens summed into heavy atoms:
               1
     1  C    0.609132
     2  N    0.390868
 Electronic spatial extent (au):  <R**2>=            252.5873
 Charge=              1.0000 electrons
 Dipole moment (field-independent basis, Debye):
    X=             -8.0676    Y=              1.2048    Z=              0.6038  Tot=              8.1794
 Quadrupole moment (field-independent basis, Debye-Ang):
   XX=              8.6477   YY=            -10.6624   ZZ=             -8.0286
   XY=             -2.9248   XZ=             -1.0657   YZ=              2.2646
 Traceless Quadrupole moment (field-independent basis, Debye-Ang):
   XX=             11.9954   YY=             -7.3146   ZZ=             -4.6808
   XY=             -2.9248   XZ=             -1.0657   YZ=              2.2646
 Octapole moment (field-independent basis, Debye-Ang**2):
  XXX=              6.4492  YYY=             -8.8495  ZZZ=             -3.7384  XYY=             18.9598
  XXY=              5.1429  XXZ=              1.3637  XZZ=             15.1498  YZZ=             -1.8503
  YYZ=             -0.6305  XYZ=             -3.5429
 Hexadecapole moment (field-independent basis, Debye-Ang**3):
 XXXX=           -114.2690 YYYY=            -17.6134 ZZZZ=            -15.4898 XXXY=             -2.8734
 XXXZ=              3.3249 YYYX=             18.3655 YYYZ=             -2.4153 ZZZX=              7.2525
 ZZZY=             -0.9639 XXYY=            -43.1868 XXZZ=            -34.2586 YYZZ=             -4.6959
 XXYZ=              7.1451 YYXZ=              0.9277 ZZXY=              3.4270
 N-N= 3.854445818263D+01 E-N=-2.923507477891D+02  KE= 9.397553473854D+01
 Orbital energies and kinetic energies (alpha):
                                 1                 2
   1         O               -14.690384         21.955489
   2         O               -10.547920         15.880541
   3         O                -1.245795          2.011496
   4         O                -0.951747          1.641310
   5         O                -0.848072          1.308935
   6         O                -0.787567          1.472180
   7         O                -0.683875          1.227674
   8         O                -0.651352          1.490141
   9         V                -0.320328          1.587065
  10         V                -0.168817          1.123674
  11         V                -0.134750          1.043687
  12         V                -0.102444          1.170530
  13         V                -0.014987          1.106240
  14         V                 0.036887          1.415975
  15         V                 0.275754          1.981363
  16         V                 0.277101          2.181407
  17         V                 0.320688          1.666653
  18         V                 0.383220          1.609754
  19         V                 0.441822          2.638504
  20         V                 0.449688          2.337185
  21         V                 0.557790          2.393670
  22         V                 0.616790          3.181758
  23         V                 0.623298          2.934007
  24         V                 0.669207          2.459457
  25         V                 0.938075          2.274660
  26         V                 1.083586          2.517201
  27         V                 1.146218          2.698044
  28         V                 1.186661          2.637240
  29         V                 1.502294          2.993620
  30         V                 1.588614          3.124066
  31         V                 1.728153          3.490441
  32         V                 1.871141          3.709463
  33         V                 2.048133          3.723322
  34         V                 2.103979          3.671614
  35         V                 2.382223          4.865912
  36         V                 2.421210          4.225426
  37         V                 3.460983          9.901168
  38         V                 3.808229          9.915435
 Total kinetic energy from orbitals= 9.397553473854D+01

 Test job not archived.
 1\1\GINC-EAM\SP\RB3LYP TD-FC\Gen\C1H4N1(1+)\DULIKAI\30-Apr-2014\0\\# t
 d(singlet, root=0, nstates=2) b3lyp/ChkBasis scf=(tight,maxcycle=10000
 ) iop(9/40=20) nosymm pop=full geom=AllCheck Guess=Read\\[0] [0]\\1,1\
 C,-2.4296595,0.3810544,0.2131855\N,-1.174535,0.1558442,0.0725376\H,-2.
 8061054,0.8631772,1.1140422\H,-3.101413,0.0901169,-0.5926702\H,-0.8044
 591,-0.3303995,-0.7500395\H,-0.4955614,0.4620201,0.7728361\\Version=EM
 64L-G09RevD.01\HF=-94.9738044\RMSD=6.962e-10\PG=C01 [X(C1H4N1)]\\@


 THE WORLD OF CHEMICAL REACTIONS IS LIKE A STAGE,
 ON WHICH SCENE AFTER SCENE IS CEASELESSLY PLAYED.
 THE ACTORS ON IT ARE THE ELEMENTS.
   -- CLEMENS WINKLER   BER. 30,13(1897)
 (DISCOVERER OF GERMANIUM, FEB 6, 1886)
 Job cpu time:       0 days  0 hours  0 minutes 10.5 seconds.
 File lengths (MBytes):  RWF=      5 Int=      0 D2E=      0 Chk=      1 Scr=      1
 Normal termination of Gaussian 09 at Wed Apr 30 11:40:25 2014.
