           6
AU Step:          0 Time:        0.0000000000
C         -4.6519303176         0.5998128696         0.3398868982
N         -2.2608770381         0.2887926719         0.1639860874
H         -5.4359572810         1.6738523232         1.9355499129
H         -5.9049774807        -0.2096157926        -1.1054962128
H         -1.4584057807        -0.7055453144        -1.3031360550
H         -1.0294464523         1.0187814049         1.4814502350
           6
AU Step:          1 Time:        8.2681585435
C         -4.6523507400         0.5998675529         0.3399178428
N         -2.2605292929         0.2887474460         0.1639604873
H         -5.4359239247         1.6737668270         1.9354190707
H         -5.9049047506        -0.2095440836        -1.1053732942
H         -1.4583640152        -0.7055250782        -1.3030983014
H         -1.0294169008         1.0187518202         1.4814074144
           6
AU Step:          2 Time:       16.5363170871
C         -4.6536095433         0.6000312822         0.3400104955
N         -2.2594880348         0.2886120257         0.1638838327
H         -5.4358258198         1.6735126333         1.9350299170
H         -5.9046895102        -0.2093306138        -1.1050075509
H         -1.4582374852        -0.7054657154        -1.3029870049
H         -1.0293264462         1.0186640151         1.4812806894
           6
AU Step:          3 Time:       24.8044756306
C         -4.6556993771         0.6003031015         0.3401643153
N         -2.2577591621         0.2883871784         0.1637565581
H         -5.4356688367         1.6730966075         1.9343925420
H         -5.9043405754        -0.2089803397        -1.1044079922
H         -1.4580225082        -0.7053712409        -1.3028080246
H         -1.0291697077         1.0185208238         1.4810752479
           6
AU Step:          4 Time:       33.0726341742
C         -4.6586081253         0.6006814351         0.3403784109
N         -2.2553523933         0.2880741690         0.1635793793
H         -5.4354626875         1.6725301255         1.9335236681
H         -5.9038725425        -0.2085014798        -1.1035895532
H         -1.4577129924        -0.7052482918        -1.3025710461
H         -1.0289377931         1.0183269273         1.4807996590
           6
AU Step:          5 Time:       41.3407927177
C         -4.6623191046         0.6011641130         0.3406515551
N         -2.2522811021         0.2876747378         0.1633532816
H         -5.4352208153         1.6718289717         1.9324465021
H         -5.9033056341        -0.2079054457        -1.1025729657
H         -1.4573005182        -0.7051060329        -1.3022894425
H         -1.0286184125         1.0180887888         1.4804657560
           6
AU Step:          6 Time:       49.6089512612
C         -4.6668113357         0.6017484064         0.3409822038
N         -2.2485620915         0.2871910714         0.1630795025
H         -5.4349602384         1.6710131939         1.9311905268
H         -5.9026654770        -0.2072067420        -1.1013845714
H         -1.4567744502        -0.7049560268        -1.3019800834
H         -1.0281960463         1.0178145615         1.4800884668
           6
AU Step:          7 Time:       57.8771098048
C         -4.6720598751         0.6024310713         0.3413685223
N         -2.2442153193         0.2866257669         0.1627595123
H         -5.4347013354         1.6701068961         1.9297912024
H         -5.9019828131        -0.2064228339        -1.1000560734
H         -1.4561220829        -0.7048120670        -1.3016630900
H         -1.0276521688         1.0175139635         1.4796855883
           6
AU Step:          8 Time:       66.1452683483
C         -4.6780362059         0.6032083983         0.3418084120
N         -2.2392635748         0.2859817899         0.1623949896
H         -5.4344675833         1.6691379822         1.9282895968
H         -5.9012931156        -0.2055739644        -1.0986241969
H         -1.4553288372        -0.7046899577        -1.3013615115
H         -1.0269655293         1.0171981269         1.4792775078
           6
AU Step:          9 Time:       74.4134268919
C         -4.6847086703         0.6040762697         0.3422995434
N         -2.2337321232         0.2852624286         0.1619877956
H         -5.4342852286         1.6681378260         1.9267319059
H         -5.9006361325        -0.2046829334        -1.0971302798
H         -1.4543784920        -0.7046072535        -1.3011009451
H         -1.0261125016         1.0168794083         1.4788868588
           6
AU Step:         10 Time:       82.6815854354
C         -4.6920429367         0.6050302204         0.3428393907
N         -2.2276483230         0.2844712435         0.1615399456
H         -5.4341829015         1.6671408697         1.9251688725
H         -5.9000553295        -0.2037748189        -1.0956197593
H         -1.4532534608        -0.7045829510        -1.3009090811
H         -1.0250674889         1.0165711701         1.4785381186
           6
AU Step:         11 Time:       90.9497439789
C         -4.7000024891         0.6060655004         0.3434252667
N         -2.2210412291         0.2836120159         0.1610535799
H         -5.4341911721         1.6661841490         1.9236550945
H         -5.8995972397        -0.2028766387        -1.0941415521
H         -1.4519351104        -0.7046371315        -1.3008151801
H         -1.0238033948         1.0162875269         1.4782571442
           6
AU Step:         12 Time:       99.2179025225
C         -4.7085491264         0.6071771408         0.3440543603
N         -2.2139411902         0.2826886955         0.1605309336
H         -5.4343420466         1.6653067327         1.9222482081
H         -5.8993107256        -0.2020169554        -1.0927473345
H         -1.4504041183        -0.7047905600        -1.3008494820
H         -1.0222921451         1.0160430635         1.4780706542
           6
AU Step:         13 Time:      107.4860610660
C         -4.7176434630         0.6083600185         0.3447237731
N         -2.2063794493         0.2817053487         0.1599743082
H         -5.4346684131         1.6645490826         1.9210079513
H         -5.8992461525        -0.2012254155        -1.0914907083
H         -1.4486408600        -0.7050642487        -1.3010425625
H         -1.0205052703         1.0158525170         1.4780056446
           6
AU Step:         14 Time:      115.7542196095
C         -4.7272454196         0.6096089206         0.3454305561
N         -2.1983877574         0.2806661078         0.1593860424
H         -5.4352034427         1.6639523331         1.9199951108
H         -5.8994544853        -0.2005322276        -1.0904262643
H         -1.4466258195        -0.7054789861        -1.3014246340
H         -1.0184145158         1.0157304410         1.4780887698
           6
AU Step:         15 Time:      124.0223781531
C         -4.7373146953         0.6109186056         0.3461717440
N         -2.1899980075         0.2795751236         0.1587684856
H         -5.4359799634         1.6635575035         1.9192703713
H         -5.8999863198        -0.1999675799        -1.0896085441
H         -1.4443400152        -0.7060548443        -1.3020248101
H         -1.0159924759         1.0156908544         1.4783456897
           6
AU Step:         16 Time:      132.2905366966
C         -4.7478112138         0.6122838614         0.3469443877
N         -2.1812418928         0.2784365206         0.1581239719
H         -5.4370298196         1.6634046485         1.9188930838
H         -5.9008908725        -0.1995610005        -1.0890909256
H         -1.4417654300        -0.7068106832        -1.3028703456
H         -1.0132132387         1.0157468857         1.4788003911
           6
AU Step:         17 Time:      140.5586952402
C         -4.7586955366         0.6136995590         0.3477455850
N         -2.1721505973         0.2772543568         0.1574547984
H         -5.4383832290         1.6635319457         1.9189199731
H         -5.9022149530        -0.1993406682        -1.0889244614
H         -1.4388854294        -0.7077636740        -1.3039858678
H         -1.0100530224         1.0159104308         1.4794744918
           6
AU Step:         18 Time:      148.8268537837
C         -4.7699292368         0.6151607012         0.3485725080
N         -2.1627545207         0.2760325881         0.1567632040
H         -5.4400681714         1.6639747025         1.9194038772
H         -5.9040019400        -0.1993326264        -1.0891567317
H         -1.4356851653        -0.7089289198        -1.3053925815
H         -1.0064907683         1.0161919056         1.4803865225
           6
AU Step:         19 Time:      157.0950123272
C         -4.7814752282         0.6166624652         0.3494224275
N         -2.1530830421         0.2747750374         0.1560513526
H         -5.4421098709         1.6647637427         1.9203928838
H         -5.9062907560        -0.1995593752        -1.0898311030
H         -1.4321519997        -0.7103197818        -1.3071070906
H         -1.0025086316         1.0166006910         1.4815508171
           6
AU Step:         20 Time:      165.3631708708
C         -4.7926232043         0.6181125294         0.3502429579
N         -2.1435688655         0.2735379576         0.1553511084
H         -5.4468080672         1.6671617738         1.9235873764
H         -5.9118456505        -0.2006257646        -1.0922748395
H         -1.4270682809        -0.7124616796        -1.3097922646
H         -0.9967124301         1.0173217040         1.4834384847
           6
AU Step:         21 Time:      173.6313294143
C         -4.8040196544         0.6195949167         0.3510817895
N         -2.1338312333         0.2722718553         0.1546344329
H         -5.4518826263         1.6699338417         1.9273221248
H         -5.9179333019        -0.2019481539        -1.0951921204
H         -1.4216456946        -0.7148281248        -1.3127894170
H         -0.9904903633         1.0181673728         1.4855816767
           6
AU Step:         22 Time:      181.8994879579
C         -4.8156379721         0.6211061661         0.3519369641
N         -2.1238926250         0.2709796556         0.1539029812
H         -5.4573282170         1.6730714511         1.9315853691
H         -5.9245447718        -0.2035199056        -1.0985722347
H         -1.4158914265        -0.7174090711        -1.3160825541
H         -0.9838541787         1.0191301001         1.4879657809
           6
AU Step:         23 Time:      190.1676465014
C         -4.8274533569         0.6226430516         0.3528066570
N         -2.1137741624         0.2696641068         0.1531583081
H         -5.4631361681         1.6765609578         1.9363570668
H         -5.9316654263        -0.2053304087        -1.1023968573
H         -1.4098150960        -0.7201908285        -1.3196508636
H         -0.9768195674         1.0201994771         1.4905718417
           6
AU Step:         24 Time:      198.4358050449
C         -4.8394428291         0.6242025835         0.3536891762
N         -2.1034955913         0.2683277778         0.1524018664
H         -5.4692946845         1.6803835830         1.9416092814
H         -5.9392751911        -0.2073650217        -1.1066403881
H         -1.4034286245        -0.7231564428        -1.3234688718
H         -0.9694059144         1.0213626164         1.4933766937
           6
AU Step:         25 Time:      206.7039635885
C         -4.8515852075         0.6257820055         0.3545829623
N         -2.0930752896         0.2669730595         0.1516350077
H         -5.4757891135         1.6845156667         1.9473066519
H         -5.9473489473        -0.2096052481        -1.1112703838
H         -1.3967460352        -0.7262860145        -1.3275068091
H         -0.9616359764         1.0226044011         1.4963532867
           6
AU Step:         26 Time:      214.9721221320
C         -4.8638610575         0.6273787886         0.3554865838
N         -2.0825302983         0.2656021683         0.1508589846
H         -5.4826022697         1.6889290664         1.9534070167
H         -5.9558570302        -0.2120290250        -1.1162481180
H         -1.3897832127        -0.7295570475        -1.3317310919
H         -0.9535354967         1.0239077518         1.4994711192
           6
AU Step:         27 Time:      223.2402806756
C         -4.8762526142         0.6289906202         0.3563987315
N         -2.0718763700         0.2642171526         0.1500749549
H         -5.4897148004         1.6935916553         1.9598621709
H         -5.9647658125        -0.2146110944        -1.1215292620
H         -1.3825576327        -0.7329448409        -1.3361048859
H         -0.9451327618         1.0252539255         1.5026967507
           6
AU Step:         28 Time:      231.5084392191
C         -4.8887436863         0.6306153920         0.3573182110
N         -2.0611280326         0.2628199016         0.1492839857
H         -5.4971055766         1.6984678937         1.9666187276
H         -5.9740383502        -0.2173234423        -1.1270646730
H         -1.3750880675        -0.7364229172        -1.3405887357
H         -0.9364581268         1.0266228412         1.5059943690
           6
AU Step:         29 Time:      239.7765977626
C         -4.9013195443         0.6322511858         0.3582439352
N         -2.0502986649         0.2614121543         0.1484870590
H         -5.5047521018         1.7035194560         1.9736190610
H         -5.9836350690        -0.2201357851        -1.1328012595
H         -1.3673942778        -0.7399634786        -1.3451412403
H         -0.9275434994         1.0279934351         1.5093264158
           6
AU Step:         30 Time:      248.0447563062
C         -4.9139668023         0.6338962577         0.3591749157
N         -2.0394005786         0.2599955109         0.1476850780
H         -5.5126309162         1.7087058866         1.9808022932
H         -5.9935144633        -0.2230160843        -1.1386828883
H         -1.3594967024        -0.7435378780        -1.3497197542
H         -0.9184218286         1.0293440197         1.5126542179
           6
AU Step:         31 Time:      256.3129148497
C         -4.9266732919         0.6355490227         0.3601102540
N         -2.0284451064         0.2585714441         0.1468788736
H         -5.5207179937         1.7139852699         1.9881053025
H         -6.0036337944        -0.2259310773        -1.1446513182
H         -1.3514161481        -0.7471170959        -1.3542810989
H         -0.9091265858         1.0306526518         1.5159386370
           6
AU Step:         32 Time:      264.5810733933
C         -4.9394279371         0.6372080376         0.3610491315
N         -2.0174426918         0.2571413105         0.1460692108
H         -5.5289891211         1.7193148975         1.9954637332
H         -6.0139497617        -0.2288468041        -1.1506471236
H         -1.3431734958        -0.7506722073        -1.3587822596
H         -0.8996912601         1.0318974994         1.5191407134
           6
AU Step:         33 Time:      272.8492319368
C         -4.9522206304         0.6388719853         0.3619908013
N         -2.0064029788         0.2557063629         0.1452567953
H         -5.5374202448         1.7246519092         2.0028129626
H         -6.0244191437        -0.2317291254        -1.1566105985
H         -1.3347894186        -0.7541748361        -1.3631810674
H         -0.8901488800         1.0330571935         1.5222222865
           6
AU Step:         34 Time:      281.1173904803
C         -4.9650421136         0.6405396595         0.3629345792
N         -1.9953348997         0.2542677614         0.1444422809
H         -5.5459877873         1.7299539024         2.0100890240
H         -6.0349993869        -0.2345442135        -1.1624826123
H         -1.3262841210        -0.7575975870        -1.3674368454
H         -0.8805315625         1.0341111644         1.5251465834
           6
AU Step:         35 Time:      289.3855490239
C         -4.9778838663         0.6422099503         0.3638798355
N         -1.9842467602         0.2528265848         0.1436262751
H         -5.5546689241         1.7351794953         2.0172294644
H         -6.0456491376        -0.2372590112        -1.1682054052
H         -1.3176771039        -0.7609144445        -1.3715110092
H         -0.8708701008         1.0350399576         1.5278787740
           6
AU Step:         36 Time:      297.6537075674
C         -4.9907379994         0.6438818303         0.3648259878
N         -1.9731463186         0.2513838407         0.1428093454
H         -5.5634418272         1.7402888439         2.0241741285
H         -6.0563287229        -0.2398416584        -1.1737233285
H         -1.3089869576        -0.7641011356        -1.3753676127
H         -0.8611935942         1.0358255225         1.5303864748
           6
AU Step:         37 Time:      305.9218661109
C         -5.0035971602         0.6455543423         0.3657724930
N         -1.9620408622         0.2499404756         0.1419920245
H         -5.5722858664         1.7452441024         2.0308658629
H         -6.0670005569        -0.2422618678        -1.1789834934
H         -1.3002311765        -0.7671354625        -1.3789738478
H         -0.8515291162         1.0364514750         1.5326402081
           6
AU Step:         38 Time:      314.1900246545
C         -5.0164544438         0.6472265880         0.3667188418
N         -1.9509372761         0.2484973836         0.1411748155
H         -5.5811817760         1.7500098284         2.0372511368
H         -6.0776294962        -0.2444912677        -1.1839363606
H         -1.2914260060        -0.7699975879        -1.3823004759
H         -0.8419014307         1.0369033288         1.5346138057
           6
AU Step:         39 Time:      322.4581831980
C         -5.0293033152         0.6488977172         0.3676645522
N         -1.9398421068         0.2470554148         0.1403581970
H         -5.5901117862         1.7545533349         2.0432805795
H         -6.0881831307        -0.2465036958        -1.1885362436
H         -1.2825863107        -0.7726702866        -1.3853222084
H         -0.8323327500         1.0371686965         1.5362847571
           6
AU Step:         40 Time:      330.7263417416
C         -5.0421375391         0.6505669196         0.3686091648
N         -1.9287616197         0.2456153836         0.1395426273
H         -5.5990597213         1.7588449872         2.0489094405
H         -6.0986320217        -0.2482754543        -1.1927417455
H         -1.2737254723        -0.7751391569        -1.3880180252
H         -0.8228425430         1.0372374562         1.5376345003
           6
AU Step:         41 Time:      338.9945002851
C         -5.0549511177         0.6522334154         0.3695522374
N         -1.9177018501         0.2441780744         0.1387285477
H         -5.6080110748         1.7628584555         2.0540979791
H         -6.1089498868        -0.2497855226        -1.1965161197
H         -1.2648553122        -0.7773927872        -1.3903714286
H         -0.8134473738         1.0371018951         1.5386486684
           6
AU Step:         42 Time:      347.2626588286
C         -5.0677382373         0.6538964495         0.3704933418
N         -1.9066686489         0.2427442476         0.1379163858
H         -5.6169530533         1.7665709149         2.0588117749
H         -6.1191137441        -0.2510157392        -1.1998275766
H         -1.2559860354        -0.7794228857        -1.3923706404
H         -0.8041607882         1.0367568162         1.5393172735
           6
AU Step:         43 Time:      355.5308173722
C         -5.0804932210         0.6555552843         0.3714320595
N         -1.8956677209         0.2413146454         0.1371065592
H         -5.6258746021         1.7699632088         2.0630219842
H         -6.1291040084        -0.2519509424        -1.2026495188
H         -1.2471261955        -0.7812243772        -1.3940087496
H         -0.7949932391         1.0361996149         1.5396348385
           6
AU Step:         44 Time:      363.7989759157
C         -5.0932104877         0.6572091954         0.3723679793
N         -1.8847046587         0.2398899956         0.1362994771
H         -5.6347664122         1.7730199714         2.0667055327
H         -6.1389045647        -0.2525790909        -1.2049607419
H         -1.2382826834        -0.7827954552        -1.3952837925
H         -0.7859520502         1.0354303271         1.5396004770
           6
AU Step:         45 Time:      372.0671344593
C         -5.1058845170         0.6588574663         0.3733006946
N         -1.8737849696         0.2384710156         0.1354955431
H         -5.6436209124         1.7757297212         2.0698452655
H         -6.1485027987        -0.2528913471        -1.2067455702
H         -1.2294607357        -0.7841375993        -1.3961987815
H         -0.7770414144         1.0344516465         1.5392179212
           6
AU Step:         46 Time:      380.3352930028
C         -5.1185098196         0.6604993848         0.3742298011
N         -1.8629140986         0.2370584147         0.1346951559
H         -5.6524322489         1.7780849208         2.0724300440
H         -6.1578896098        -0.2528821421        -1.2079939614
H         -1.2206639616        -0.7852555553        -1.3967616755
H         -0.7682624267         1.0332689152         1.5384955028
           6
AU Step:         47 Time:      388.6034515463
C         -5.1310809116         0.6621342396         0.3751548943
N         -1.8520974439         0.2356528965         0.1338987111
H         -5.6611962543         1.7800820133         2.0744548084
H         -6.1670593962        -0.2525492143        -1.2087015650
H         -1.2118943897        -0.7861572763        -1.3969852930
H         -0.7596131581         1.0318900782         1.5374460717
           6
AU Step:         48 Time:      396.8716100899
C         -5.1435922937         0.6637613179         0.3760755692
N         -1.8413403678         0.2342551612         0.1331066023
H         -5.6699104046         1.7817214269         2.0759205911
H         -6.1760100220        -0.2518936292        -1.2088697500
H         -1.2031525326        -0.7868538302        -1.3968871740
H         -0.7510887660         1.0303256086         1.5360868618
           6
AU Step:         49 Time:      405.1397686334
C         -5.1560384342         0.6653799029         0.3769914176
N         -1.8306482029         0.2328659047         0.1323192207
H         -5.6785737742         1.7830075647         2.0768345074
H         -6.1847427640        -0.2509197770        -1.2085055936
H         -1.1944374731        -0.7873592605        -1.3964893696
H         -0.7426816336         1.0285884054         1.5344393126
           6
AU Step:         50 Time:      413.4079271770
C         -5.1684137549         0.6669892721         0.3779020281
N         -1.8200262514         0.2314858201         0.1315369557
H         -5.6871869786         1.7839487615         2.0772096955
H         -6.1932622420        -0.2496353507        -1.2076218369
H         -1.1857469668        -0.7876904138        -1.3958181820
H         -0.7343815557         1.0266936520         1.5325288206
           6
AU Step:         51 Time:      421.6760857205
C         -5.1807126227         0.6685886961         0.3788069850
N         -1.8094797796         0.2301155963         0.1307601944
H         -5.6957521109         1.7845572208         2.0770652253
H         -6.2015763260        -0.2480513005        -1.2062368014
H         -1.1770775657        -0.7878667233        -1.3949038387
H         -0.7261759573         1.0246586449         1.5303844402
           6
AU Step:         52 Time:      429.9442442640
C         -5.1929293433         0.6701774382         0.3797058682
N         -1.7990140075         0.2287559169         0.1299893204
H         -5.7042726711         1.7848489221         2.0764259616
H         -6.2096960277        -0.2461817672        -1.2043742696
H         -1.1684247611        -0.7879099513        -1.3937801031
H         -0.7180501515         1.0225025900         1.5280385265
           6
AU Step:         53 Time:      438.2124028076
C         -5.2050581594         0.6717547538         0.3805982531
N         -1.7886340922         0.2274074576         0.1292247126
H         -5.7127534871         1.7848434991         2.0753223830
H         -6.2176353680        -0.2440439885        -1.2020633186
H         -1.1597831481        -0.7878438863        -1.3924838162
H         -0.7099876371         1.0202463595         1.5255263132
           6
AU Step:         54 Time:      446.4805613511
C         -5.2170932527         0.6733198910         0.3814837101
N         -1.7783451059         0.2260708844         0.1284667445
H         -5.7212006273         1.7845640883         2.0737903554
H         -6.2254112207        -0.2416581778        -1.1993381078
H         -1.1511466052        -0.7876940071        -1.3910543883
H         -0.7019704360         1.0179122167         1.5228854338
           6
AU Step:         55 Time:      454.7487198947
C         -5.2290287504         0.6748720911         0.3823618060
N         -1.7681520101         0.2247468492         0.1277157809
H         -5.7296213017         1.7840371387         2.0718708436
H         -6.2330431301        -0.2390473731        -1.1962376165
H         -1.1425084975        -0.7874870963        -1.3895332148
H         -0.6939794624         1.0155235118         1.5201553909
           6
AU Step:         56 Time:      463.0168784382
C         -5.2408587367         0.6764105904         0.3832321037
N         -1.7580596239         0.2234359861         0.1269721760
H         -5.7380237538         1.7832921844         2.0696095675
H         -6.2405530949        -0.2362372471        -1.1928053138
H         -1.1338618955        -0.7872508228        -1.3879630431
H         -0.6859949305         1.0131043425         1.5173769672
           6
AU Step:         57 Time:      471.2850369817
C         -5.2525772687         0.6779346224         0.3840941646
N         -1.7480725890         0.2221389073         0.1262362712
H         -5.7464171344         1.7823615669         2.0670565792
H         -6.2479653251        -0.2332558866        -1.1890887773
H         -1.1251998034        -0.7870132949        -1.3863872969
H         -0.6779967886         1.0106791902         1.5145915942
           6
AU Step:         58 Time:      479.5531955253
C         -5.2641783977         0.6794434203         0.3849475492
N         -1.7381953307         0.2208561974         0.1255083918
H         -5.7548113682         1.7812801188         2.0642657825
H         -6.2553059576        -0.2301335247        -1.1851392301
H         -1.1165154080        -0.7868025803        -1.3848493468
H         -0.6699651799         1.0082725326         1.5118406792
           6
AU Step:         59 Time:      487.8213540688
C         -5.2756561957         0.6809362209         0.3857918193
N         -1.7284320166         0.2195884086         0.1247888434
H         -5.7632170001         1.7800847903         2.0612943617
H         -6.2626027351        -0.2269022332        -1.1810110109
H         -1.1078023317        -0.7866462074        -1.3833917570
H         -0.6618809168         1.0059084444         1.5091649129
           6
AU Step:         60 Time:      496.0895126123
C         -5.2870047884         0.6824122688         0.3866265402
N         -1.7187865132         0.2183360545         0.1240779095
H         -5.7716450291         1.7788142303         2.0582021420
H         -6.2698846456        -0.2235955696        -1.1767609662
H         -1.0990548885        -0.7865706624        -1.3820555201
H         -0.6537259678         1.0036101834         1.5066035525
           6
AU Step:         61 Time:      504.3576711559
C         -5.2982183919         0.6838708212         0.3874512837
N         -1.7092623438         0.2170996052         0.1233758474
H         -5.7801067248         1.7775083093         2.0550508607
H         -6.2771815240        -0.2202481819        -1.1724477704
H         -1.0902683358        -0.7866008857        -1.3808792952
H         -0.6454839325         1.0013997866         1.5041937211
           6
AU Step:         62 Time:      512.6258296994
C         -5.3092913566         0.6853111539         0.3882656308
N         -1.6998626457         0.2158794812         0.1226828849
H         -5.7886134289         1.7762075964         2.0519033662
H         -6.2845236106        -0.2168953669        -1.1681311649
H         -1.0814391199        -0.7867597816        -1.3798986632
H         -0.6371405064         0.9992976704         1.5019697174
           6
AU Step:         63 Time:      520.8939882430
C         -5.3202182148         0.6867325678         0.3890691755
N         -1.6905901310         0.2146760492         0.1219992181
H         -5.7971763429         1.7749527886         2.0488227451
H         -6.2919410810        -0.2135725933        -1.1638711391
H         -1.0725651028        -0.7870677606        -1.3791454298
H         -0.6286839185         0.9973222547         1.4999623658
           6
AU Step:         64 Time:      529.1621467865
C         -5.3309937324         0.6881343949         0.3898615273
N         -1.6814470515         0.2134896170         0.1213250082
H         -5.8058063054         1.7737841053         2.0458713954
H         -6.2994635386        -0.2103149854        -1.1597270442
H         -1.0636457663        -0.7875423182        -1.3786469877
H         -0.6201053234         0.9954896197         1.4981984229
           6
AU Step:         65 Time:      537.4303053300
C         -5.3416129642         0.6895160067         0.3906423165
N         -1.6724351693         0.2123204300         0.1206603786
H         -5.8145135591         1.7727406462         2.0431100438
H         -6.3071194918        -0.2071567882        -1.1557566733
H         -1.0546823874        -0.7881976693        -1.3784257575