           6
ANG Step:          0 Time:        0.0000000000
C         -2.4616955000         0.3174073000         0.1798604000
N         -1.1964046000         0.1528225000         0.0867777000
H         -2.8765847000         0.8857645000         1.0242489000
H         -3.1247795000        -0.1109239000        -0.5850034000
H         -0.7717551000        -0.3733585000        -0.6895899000
H         -0.5447596000         0.5391159000         0.7839497000
           6
ANG Step:          1 Time:        8.2681585435
C         -2.4619179780         0.3174362371         0.1798767752
N         -1.1962205812         0.1527985675         0.0867641530
H         -2.8765670486         0.8857192573         1.0241796613
H         -3.1247410129        -0.1108859532        -0.5849383543
H         -0.7717329987        -0.3733477914        -0.6895699216
H         -0.5447439620         0.5391002445         0.7839270404
           6
ANG Step:          2 Time:       16.5363170871
C         -2.4625841080         0.3175228790         0.1799258049
N         -1.1956695711         0.1527269061         0.0867235891
H         -2.8765151337         0.8855847438         1.0239737300
H         -3.1246271126        -0.1107729899        -0.5847448113
H         -0.7716660419        -0.3733163780        -0.6895110261
H         -0.5446960955         0.5390537800         0.7838599804
           6
ANG Step:          3 Time:       24.8044756306
C         -2.4636900004         0.3176667196         0.1800072028
N         -1.1947546911         0.1526079221         0.0866562383
H         -2.8764320618         0.8853645925         1.0236364457
H         -3.1244424643        -0.1105876328        -0.5844275385
H         -0.7715522809        -0.3732663843        -0.6894163138
H         -0.5446131531         0.5389780064         0.7837512654
           6
ANG Step:          4 Time:       33.0726341742
C         -2.4652292437         0.3178669251         0.1801204973
N         -1.1934810839         0.1524422846         0.0865624793
H         -2.8763229723         0.8850648231         1.0231766574
H         -3.1241947919        -0.1103342311        -0.5839944392
H         -0.7713884922        -0.3732013224        -0.6892909102
H         -0.5444904291         0.5388754008         0.7836054300
           6
ANG Step:          5 Time:       41.3407927177
C         -2.4671930093         0.3181223472         0.1802650390
N         -1.1918558266         0.1522309148         0.0864428336
H         -2.8761949791         0.8846937885         1.0226066457
H         -3.1238947969        -0.1100188234        -0.5834564843
H         -0.7711702203        -0.3731260422        -0.6891418920
H         -0.5443214202         0.5387493834         0.7834287362
           6
ANG Step:          6 Time:       49.6089512612
C         -2.4695701956         0.3184315420         0.1804400108
N         -1.1898878109         0.1519749695         0.0862979559
H         -2.8760570877         0.8842620975         1.0219420122
H         -3.1235560404        -0.1096490853        -0.5828276131
H         -0.7708918371        -0.3730466624        -0.6889781862
H         -0.5440979137         0.5386042685         0.7832290833
           6
ANG Step:          7 Time:       57.8771098048
C         -2.4723476031         0.3187927927         0.1806444417
N         -1.1875875981         0.1516758232         0.0861286244
H         -2.8759200822         0.8837825053         1.0212015217
H         -3.1231947902        -0.1092342591        -0.5821246022
H         -0.7705466192        -0.3729704822        -0.6888104405
H         -0.5438101061         0.5384451989         0.7830158892
           6
ANG Step:          8 Time:       66.1452683483
C         -2.4755101411         0.3192041364         0.1808772213
N         -1.1849672478         0.1513350453         0.0859357273
H         -2.8757963859         0.8832697782         1.0204069062
H         -3.1228298180        -0.1087850566        -0.5813668858
H         -0.7701268517        -0.3729058647        -0.6886508520
H         -0.5434467521         0.5382780654         0.7827999423
           6
ANG Step:          9 Time:       74.4134268919
C         -2.4790410572         0.3196633942         0.1811371169
N         -1.1820401297         0.1509543757         0.0857202495
H         -2.8756998879         0.8827405183         1.0195826117
H         -3.1224821575        -0.1083135434        -0.5805763389
H         -0.7696239506        -0.3728620996        -0.6885129662
H         -0.5429953493         0.5381094068         0.7825932197
           6
ANG Step:         10 Time:       82.6815854354
C         -2.4829221838         0.3201682031         0.1814227918
N         -1.1788207213         0.1505356986         0.0854832575
H         -2.8756457388         0.8822129518         1.0187554900
H         -3.1221748098        -0.1078329899        -0.5797770059
H         -0.7690286098        -0.3728492392        -0.6884114361
H         -0.5424423524         0.5379462941         0.7824086744
           6
ANG Step:         11 Time:       90.9497439789
C         -2.4871341976         0.3207160497         0.1817328240
N         -1.1753243978         0.1500810149         0.0852258838
H         -2.8756501154         0.8817066770         1.0179544332
H         -3.1219323991        -0.1073576934        -0.5789947723
H         -0.7683309688        -0.3728779103        -0.6883617459
H         -0.5417734226         0.5377961966         0.7822599892
           6
ANG Step:         12 Time:       99.2179025225
C         -2.4916568832         0.3213043045         0.1820657260
N         -1.1715672190         0.1495924148         0.0849493113
H         -2.8757299547         0.8812423682         1.0172099410
H         -3.1217807824        -0.1069027686        -0.5782569841
H         -0.7675208026        -0.3729591012        -0.6883798977
H         -0.5409737037         0.5376668322         0.7821613029
           6
ANG Step:         13 Time:      107.4860610660
C         -2.4964693989         0.3219302564         0.1824199640
N         -1.1675657181         0.1490720501         0.0846547578
H         -2.8759026604         0.8808414371         1.0165536253
H         -3.1217466118        -0.1064839037        -0.5775920062
H         -0.7665877265        -0.3731039310        -0.6884820715
H         -0.5400281303         0.5375659993         0.7821269013
           6
ANG Step:         14 Time:      115.7542196095
C         -2.5015505355         0.3225911469         0.1827939774
N         -1.1633366969         0.1485221075         0.0843434610
H         -2.8761857860         0.8805256508         1.0160176532
H         -3.1218568567        -0.1061170844        -0.5770287267
H         -0.7655214130        -0.3733234006        -0.6886842550
H         -0.5389217507         0.5375013994         0.7821708892
           6
ANG Step:         15 Time:      124.0223781531
C         -2.5068789667         0.3232842024         0.1831861972
N         -1.1588970324         0.1479447835         0.0840166640
H         -2.8765967030         0.8803167161         1.0156341376
H         -3.1221382914        -0.1058182857        -0.5765960078
H         -0.7643118175        -0.3736281316        -0.6890018545
H         -0.5376400623         0.5374804511         0.7823068454
           6
ANG Step:         16 Time:      132.2905366966
C         -2.5124334850         0.3240066647         0.1835950626
N         -1.1542634961         0.1473422608         0.0836756021
H         -2.8771522629         0.8802358286         1.0154344857
H         -3.1226169601        -0.1056031332        -0.5763220959
H         -0.7629494057        -0.3740281043        -0.6894492926
H         -0.5361693534         0.5375101016         0.7825474630
           6
ANG Step:         17 Time:      140.5586952402
C         -2.5181932206         0.3247558196         0.1840190380
N         -1.1494525897         0.1467166866         0.0833214907
H         -2.8778684564         0.8803031914         1.0154487149
H         -3.1233176333        -0.1054865384        -0.5762340068
H         -0.7614253750        -0.3745324053        -0.6900396016
H         -0.5344970389         0.5375966460         0.7829041817
           6
ANG Step:         18 Time:      148.8268537837
C         -2.5241378387         0.3255290227         0.1844566268
N         -1.1444804001         0.1460701545         0.0829555147
H         -2.8787600895         0.8805374882         1.0157047859
H         -3.1242632661        -0.1054822828        -0.5763569190
H         -0.7597318682        -0.3751490269        -0.6907840024
H         -0.5326119752         0.5377455960         0.7833868076
           6
ANG Step:         19 Time:      157.0950123272
C         -2.5302477142         0.3263237220         0.1849063848
N         -1.1393624741         0.1454046873         0.0825788192
H         -2.8798405103         0.8809550303         1.0162281456
H         -3.1254744554        -0.1056022731        -0.5767137809
H         -0.7578621975        -0.3758850393        -0.6916912815
H         -0.5305047193         0.5379619159         0.7840029258
           6
ANG Step:         20 Time:      165.3631708708
C         -2.5361469691         0.3270910629         0.1853405908
N         -1.1343277887         0.1447500529         0.0822082659
H         -2.8823266887         0.8822240137         1.0179185983
H         -3.1284139790        -0.1061665821        -0.5780069506
H         -0.7551720093        -0.3770184828        -0.6931122144
H         -0.5274375015         0.5383434595         0.7850018364
           6
ANG Step:         21 Time:      173.6313294143
C         -2.5421777107         0.3278755085         0.1857844813
N         -1.1291748556         0.1440800604         0.0818290175
H         -2.8850120298         0.8836909289         1.0198949421
H         -3.1316354253        -0.1068663604        -0.5795507092
H         -0.7523025003        -0.3782707517        -0.6946982391
H         -0.5241449256         0.5387909682         0.7861359648
           6
ANG Step:         22 Time:      181.8994879579
C         -2.5483258597         0.3286752272         0.1862370203
N         -1.1239155706         0.1433962577         0.0814419500
H         -2.8878937122         0.8853512803         1.0221509538
H         -3.1351340645        -0.1076980955        -0.5813393886
H         -0.7492574727        -0.3796365297        -0.6964408922
H         -0.5206332079         0.5393004216         0.7873975784
           6
ANG Step:         23 Time:      190.1676465014
C         -2.5545782920         0.3294885120         0.1866972419
N         -1.1185611109         0.1427000993         0.0810478859
H         -2.8909671476         0.8871978477         1.0246760275
H         -3.1389021526        -0.1086561725        -0.5833632917
H         -0.7460420171        -0.3811085723        -0.6983291603
H         -0.5169106520         0.5398663115         0.7887766464
           6
ANG Step:         24 Time:      198.4358050449
C         -2.5609228474         0.3303137807         0.1871642510
N         -1.1131219253         0.1419929445         0.0806475942
H         -2.8942260941         0.8892206938         1.0274553797
H         -3.1429290667        -0.1097328433        -0.5856088715
H         -0.7426624420        -0.3826779078        -0.7003495632
H         -0.5129875158         0.5404818183         0.7902609102
           6
ANG Step:         25 Time:      206.7039635885
C         -2.5673483173         0.3311495748         0.1876372222
N         -1.1076077391         0.1412760584         0.0802417901
H         -2.8976627979         0.8914072983         1.0304702983
H         -3.1472015144        -0.1109183201        -0.5880589597
H         -0.7391261680        -0.3843340058        -0.7024863476
H         -0.5088758417         0.5411389424         0.7918360553
           6
ANG Step:         26 Time:      214.9721221320
C         -2.5738444174         0.3319945561         0.1881153981
N         -1.1020275700         0.1405506140         0.0798311364
H         -2.9012681649         0.8937427689         1.0336984723
H         -3.1517037980        -0.1122009276        -0.5906930632
H         -0.7354416011        -0.3860649619        -0.7047217418
H         -0.5045892524         0.5418286459         0.7934859412
           6
ANG Step:         27 Time:      223.2402806756
C         -2.5804017468         0.3328475006         0.1885980859
N         -1.0963897540         0.1398176953         0.0794162457
H         -2.9050319540         0.8962101046         1.0371143928
H         -3.1564181225        -0.1135672999        -0.5934877242
H         -0.7316179888        -0.3878577049        -0.7070362539
H         -0.5001427167         0.5425410104         0.7951928719
           6
ANG Step:         28 Time:      231.5084392191
C         -2.5870117374         0.3337072928         0.1890846534
N         -1.0907019788         0.1390783019         0.0789976828
H         -2.9089429844         0.8987904988         1.0406898086
H         -3.1613249382        -0.1150026126        -0.5964169376
H         -0.7276652651        -0.3896982237        -0.7094090050
H         -0.4955522975         0.5432654094         0.7969378963
           6
ANG Step:         29 Time:      239.7765977626
C         -2.5936665949         0.3345729176         0.1895745256
N         -1.0849713243         0.1383333541         0.0785759674
H         -2.9129893512         0.9014636705         1.0443942255
H         -3.1664033030        -0.1164908403        -0.5994526084
H         -0.7235938870        -0.3915718080        -0.7118180867
H         -0.4908348798         0.5439906965         0.7987011396
           6
ANG Step:         30 Time:      248.0447563062
C         -2.6003592355         0.3354434522         0.1900671793
N         -1.0792043054         0.1375836987         0.0781515773
H         -2.9171586402         0.9042082114         1.0481954283
H         -3.1716312533        -0.1180150289        -0.6025650323
H         -0.7194146701        -0.3934632988        -0.7142409319
H         -0.4860078995         0.5447053950         0.8004621366
           6
ANG Step:         31 Time:      256.3129148497
C         -2.6070832202         0.3363180578         0.1905621390
N         -1.0734069192         0.1368301150         0.0777249523
H         -2.9214381373         0.9070019407         1.0520600144
H         -3.1769861727        -0.1195575768        -0.6057233894
H         -0.7151386249        -0.3953573393        -0.7166546915
H         -0.4810890689         0.5453978933         0.8022001763
           6
ANG Step:         32 Time:      264.5810733933
C         -2.6138326878         0.3371959706         0.1910589716
N         -1.0675846921         0.1360733209         0.0772964972
H         -2.9258150294         0.9098222581         1.0559539282
H         -3.1824451475        -0.1211005130        -0.6088962329
H         -0.7107768011        -0.3972386232        -0.7190366032
H         -0.4760961096         0.5460566383         0.8038946422
           6
ANG Step:         33 Time:      272.8492319368
C         -2.6206022895         0.3380764938         0.1915572818
N         -1.0617427276         0.1353139793         0.0768665855
H         -2.9302765880         0.9126464831         1.0598429729
H         -3.1879853058        -0.1226257718        -0.6120519680
H         -0.7063401386        -0.3990921346        -0.7213643521
H         -0.4710464996         0.5466703220         0.8055253404
           6
ANG Step:         34 Time:      281.1173904803
C         -2.6273871262         0.3389589890         0.1920567075
N         -1.0558857525         0.1345527042         0.0764355630
H         -2.9348103362         0.9154521771         1.0636932988
H         -3.1935841294        -0.1241154522        -0.6151593038
H         -0.7018393290        -0.4009033763        -0.7236164128
H         -0.4659572343         0.5472280594         0.8070728117
           6
ANG Step:         35 Time:      289.3855490239
C         -2.6341826891         0.3398428688         0.1925569156
N         -1.0500181617         0.1337900664         0.0760037514
H         -2.9394041959         0.9182174417         1.0674718571
H         -3.1992197348        -0.1255520613        -0.6181876754
H         -0.6972846917        -0.4026585817        -0.7257723674
H         -0.4608446090         0.5477195555         0.8085186247
           6
ANG Step:         36 Time:      297.6537075674
C         -2.6409848034         0.3407275896         0.1930575978
N         -1.0441440610         0.1330265991         0.0755714507
H         -2.9440466163         0.9209211925         1.0711468150
H         -3.2048711279        -0.1269187393        -0.6211076346
H         -0.6926860643        -0.4043449060        -0.7278131941
H         -0.4557240222         0.5481352586         0.8098456428
           6
ANG Step:         37 Time:      305.9218661109
C         -2.6477895781         0.3416126449         0.1935584668
N         -1.0382673066         0.1322628032         0.0751389431
H         -2.9487266803         0.9235434024         1.0746879284
H         -3.2105184192        -0.1281994589        -0.6238911940
H         -0.6880527045        -0.4059506027        -0.7297215315
H         -0.4506098008         0.5484664984         0.8110382671
           6
ANG Step:         38 Time:      314.1900246545
C         -2.6545933596         0.3424975591         0.1940592531
N         -1.0323915419         0.1314991518         0.0747064948
H         -2.9534341929         0.9260653160         1.0780668697
H         -3.2161430116        -0.1293792066        -0.6265121385
H         -0.6833932089        -0.4074651742        -0.7314819072
H         -0.4455150490         0.5487056091         0.8120826499
           6
ANG Step:         39 Time:      322.4581831980
C         -2.6613926895         0.3433818827         0.1945597014
N         -1.0265202312         0.1307360948         0.0742743589
H         -2.9581597507         0.9284696361         1.0812575134
H         -3.2217277545        -0.1304441376        -0.6289462917
H         -0.6787154437        -0.4088795054        -0.7330809392
H         -0.4404515213         0.5488460357         0.8129668794
           6
ANG Step:         40 Time:      330.7263417416
C         -2.6681842683         0.3442651865         0.1950595689
N         -1.0206566899         0.1299740631         0.0738427780
H         -2.9628947940         0.9307406806         1.0842361784
H         -3.2272570695        -0.1313817119        -0.6311717475
H         -0.6740264899        -0.4101859753        -0.7345075040
H         -0.4354295200         0.5488824217         0.8136811327
           6
ANG Step:         41 Time:      338.9945002851
C         -2.6749649220         0.3451470581         0.1955586214
N         -1.0148041120         0.1292134718         0.0734119856
H         -2.9676316463         0.9328645166         1.0869818348
H         -3.2327170485        -0.1321808056        -0.6331690602
H         -0.6693326034        -0.4113785451        -0.7357528715
H         -0.4304578106         0.5488106859         0.8142178073
           6
ANG Step:         42 Time:      347.2626588286
C         -2.6817315743         0.3460270979         0.1960566324
N         -1.0089655933         0.1284547234         0.0729822081
H         -2.9723635375         0.9348290655         1.0894762680
H         -3.2380955302        -0.1328318082        -0.6349214077
H         -0.6646391843        -0.4124528270        -0.7368108088
H         -0.4255435612         0.5486280780         0.8145716179
           6
ANG Step:         43 Time:      355.5308173722
C         -2.6884812210         0.3469049154         0.1965533804
N         -1.0031441530         0.1276982105         0.0725536663
H         -2.9770846178         0.9366241901         1.0917042148
H         -3.2433821503        -0.1333266964        -0.6364147153
H         -0.6599507589        -0.4134061352        -0.7376776589
H         -0.4206923031         0.5483332197         0.8147396661
           6
ANG Step:         44 Time:      363.7989759157
C         -2.6952109086         0.3477801275         0.1970486479
N         -0.9973427503         0.1269443183         0.0721265768
H         -2.9817899611         0.9382417593         1.0936534648
H         -3.2485683813        -0.1336590983        -0.6376377619
H         -0.6552709739        -0.4142375139        -0.7383523825
H         -0.4159079120         0.5479261302         0.8147214828
           6
ANG Step:         45 Time:      372.0671344593
C         -2.7019177161         0.3486523549         0.1975422195
N         -0.9915642997         0.1261934264         0.0717011533
H         -2.9864755607         0.9396756971         1.0953149398
H         -3.2536475480        -0.1338243371        -0.6385822523
H         -0.6506026002        -0.4149477460        -0.7388365738
H         -0.4111926066         0.5474082347         0.8145190430
           6
ANG Step:         46 Time:      380.3352930028
C         -2.7085987385         0.3495212207         0.1980338815
N         -0.9858116826         0.1254459101         0.0712776066
H         -2.9911383192         0.9409220150         1.0966827457
H         -3.2586148345        -0.1338194661        -0.6392428725
H         -0.6459475478        -0.4155393428        -0.7391344445
H         -0.4065469664         0.5467823602         0.8141367556
           6
ANG Step:         47 Time:      388.6034515463
C         -2.7152510738         0.3503863486         0.1985234198
N         -0.9800877554         0.1247021420         0.0708561462
H         -2.9957760311         0.9419788309         1.0977542048
H         -3.2634672765        -0.1336432882        -0.6396173202
H         -0.6413068903        -0.4160165130        -0.7392527778
H         -0.4019699706         0.5460527111         0.8135814206
           6
ANG Step:         48 Time:      396.8716100899
C         -2.7218718121         0.3512473614         0.1990106199
N         -0.9743953559         0.1239624923         0.0704369802
H         -3.0003873609         0.9428463711         1.0985298637
H         -3.2682037436        -0.1332963675        -0.6397063199
H         -0.6366808987        -0.4163851134        -0.7392008555
H         -0.3974590566         0.5452248295         0.8128621577
           6
ANG Step:         49 Time:      405.1397686334
C         -2.7284580260         0.3521038797         0.1994952660
N         -0.9687373059         0.1232273294         0.0700203159
H         -3.0049718186         0.9435269660         1.0990134873
H         -3.2728249117        -0.1327810272        -0.6395136166
H         -0.6320690879        -0.4166525756        -0.7389903465
H         -0.3930101937         0.5443055412         0.8119903122
           6
ANG Step:         50 Time:      413.4079271770
C         -2.7350067636         0.3529555212         0.1999771403
N         -0.9631164113         0.1224970201         0.0696063591
H         -3.0095297301         0.9440250259         1.0992120283
H         -3.2773332253        -0.1321013380        -0.6390459527
H         -0.6274702700        -0.4168278144        -0.7386351693
H         -0.3886179817         0.5433028808         0.8109793234
           6
ANG Step:         51 Time:      421.6760857205
C         -2.7415150442         0.3538018999         0.2004560229
N         -0.9575354588         0.1217719289         0.0691953147
H         -3.0140622029         0.9443470086         1.0991355780
H         -3.2817328491        -0.1312630948        -0.6383130234
H         -0.6228826205        -0.4169211134        -0.7381513196
H         -0.3842757660         0.5422260015         0.8098445661
           6
ANG Step:         52 Time:      429.9442442640
C         -2.7479798543         0.3546426260         0.2009316914
N         -0.9519972107         0.1210524176         0.0687873857
H         -3.0185710891         0.9445013704         1.0987972942
H         -3.2860296102        -0.1302737804        -0.6373274141
H         -0.6183037535        -0.4169439886        -0.7375566643
H         -0.3799757748         0.5410850664         0.8086031621
           6
ANG Step:         53 Time:      438.2124028076
C         -2.7543981473         0.3554773055         0.2014039212
N         -0.9465043961         0.1203388436         0.0683827727
H         -3.0230589437         0.9444985006         1.0982133056
H         -3.2902309281        -0.1291425166        -0.6361045115
H         -0.6137308089        -0.4169090285        -0.7368706989
H         -0.3757092759         0.5398911206         0.8072737561
           6
ANG Step:         54 Time:      446.4805613511
C         -2.7607668444         0.3563055404         0.2018724848
N         -0.9410596990         0.1196315595         0.0679816733
H         -3.0275289777         0.9443506428         1.0974025915
H         -3.2943457321        -0.1278800000        -0.6346623920
H         -0.6091605472        -0.4168297159        -0.7361142782
H         -0.3714667558         0.5386559454         0.8058762629
           6
ANG Step:         55 Time:      454.7487198947
C         -2.7670828378         0.3571269293         0.2023371532
N         -0.9356657451         0.1189309103         0.0675842805
H         -3.0319850067         0.9440717931         1.0963868296
H         -3.2983843646        -0.1264984216        -0.6330216827
H         -0.6045894575        -0.4167202234        -0.7353093079
H         -0.3672381147         0.5373918972         0.8044315864
           6
ANG Step:         56 Time:      463.0168784382
C         -2.7733429969         0.3579410681         0.2027976949
N         -0.9303250843         0.1182372314         0.0671907817
H         -3.0364313929         0.9436775803         1.0951902138
H         -3.3023584668        -0.1250113670        -0.6312053864
H         -0.6000138728        -0.4165951928        -0.7344784088
H         -0.3630128824         0.5361117280         0.8029613079
           6
ANG Step:         57 Time:      471.2850369817
C         -2.7795441770         0.3587475511         0.2032538779
N         -0.9250401731         0.1175508469         0.0668013576
H         -3.0408729786         0.9431851187         1.0938392306
H         -3.3062808501        -0.1234336990        -0.6292386800
H         -0.5954300911        -0.4164694985        -0.7336445598
H         -0.3587804480         0.5348283926         0.8014873520
           6
ANG Step:         58 Time:      479.5531955253
C         -2.7856832300         0.3595459725         0.2037054695
N         -0.9198133531         0.1168720661         0.0664161804
H         -3.0453150158         0.9426128410         1.0923624046
H         -3.3101653455        -0.1217814162        -0.6271486696
H         -0.5908345069        -0.4163579931        -0.7328307117
H         -0.3545303038         0.5335548443         0.8000316305
           6
ANG Step:         59 Time:      487.8213540688
C         -2.7917570191         0.3603359286         0.2041522380
N         -0.9146468298         0.1162011811         0.0660354118
H         -3.0497630846         0.9419803004         1.0907899964
H         -3.3140266339        -0.1200714904        -0.6249641101
H         -0.5862237456        -0.4162752442        -0.7320593883
H         -0.3502522960         0.5323038227         0.7986156759
           6
ANG Step:         60 Time:      496.0895126123
C         -2.7977624357         0.3611170195         0.2045939533
N         -0.9095426492         0.1155384639         0.0656592018
H         -3.0542230055         0.9413079490         1.0891536642
H         -3.3178800549        -0.1183216794        -0.6227150833
H         -0.5815947980        -0.4162352675        -0.7313522822
H         -0.3459368828         0.5310876354         0.7972602624
           6
ANG Step:         61 Time:      504.3576711559
C         -2.8036964191         0.3618888522         0.2050303888
N         -0.9045026758         0.1148841630         0.0652876865
H         -3.0587007420         0.9406168853         1.0874860780
H         -3.3217413967        -0.1165503181        -0.6204326384
H         -0.5769451545        -0.4162512610        -0.7307298509
H         -0.3415753856         0.5299179438         0.7959850345
           6
ANG Step:         62 Time:      512.6258296994
C         -2.8095559797         0.3626510434         0.2054613227
N         -0.8995285698         0.1142385013         0.0649209866
H         -3.0632022959         0.9399285778         1.0858204956
H         -3.3256266616        -0.1147760848        -0.6181483891
H         -0.5722729347        -0.4163353451        -0.7302109227
H         -0.3371602347         0.5288055518         0.7948081425
           6
ANG Step:         63 Time:      520.8939882430
C         -2.8153382240         0.3634032233         0.2058865402
N         -0.8946217664         0.1136016725         0.0645592057
H         -3.0677335948         0.9392645621         1.0841903012
H         -3.3295518179        -0.1130177487        -0.6158940805
H         -0.5675770071        -0.4164983205        -0.7298123288
H         -0.3326852011         0.5277602068         0.7937458977
           6
ANG Step:         64 Time:      529.1621467865
C         -2.8210403823         0.3641450382         0.2063058348
N         -0.8897834571         0.1129738396         0.0642024292
H         -3.0723003743         0.9386461215         1.0826285141
H         -3.3335325310        -0.1112938969        -0.6137011200
H         -0.5628570975        -0.4167494456        -0.7295485646
H         -0.3281456041         0.5267904181         0.7928124593
           6
ANG Step:         65 Time:      537.4303053300
C         -2.8266598378         0.3648761557         0.2067190106
N         -0.8850145744         0.1123551325         0.0638507223
H         -3.0769080545         0.9380939467         1.0811672698
H         -3.3375838869        -0.1096226509        -0.6116000902