           6
AU Step:          0 Time:        0.0000000000
C          0.0000000000         0.0000000000         0.0000000000
N          0.0000000000         0.0000000000         0.0000000000
H          0.0000000000         0.0000000000         0.0000000000
H          0.0000000000         0.0000000000         0.0000000000
H          0.0000000000         0.0000000000         0.0000000000
H          0.0000000000         0.0000000000         0.0000000000
           6
AU Step:          1 Time:        8.2681585435
C         -0.0001015477         0.0000132081         0.0000074743
N          0.0000839971        -0.0000109242        -0.0000061836
H          0.0000079498        -0.0000205421        -0.0000314457
H          0.0000174144         0.0000172456         0.0000295508
H          0.0000101773         0.0000048136         0.0000090135
H          0.0000072571        -0.0000070989        -0.0000102529
           6
AU Step:          2 Time:       16.5363170871
C         -0.0002025020         0.0000263389         0.0000149049
N          0.0001675180        -0.0000217864        -0.0000123322
H          0.0000154259        -0.0000405302        -0.0000620772
H          0.0000341173         0.0000340913         0.0000583747
H          0.0000206519         0.0000093030         0.0000175539
H          0.0000149485        -0.0000139690        -0.0000200871
           6
AU Step:          3 Time:       24.8044756306
C         -0.0003022790         0.0000393167         0.0000222489
N          0.0002500945        -0.0000325258        -0.0000184112
H          0.0000219597        -0.0000594152        -0.0000910873
H          0.0000494044         0.0000501402         0.0000857505
H          0.0000317176         0.0000131482         0.0000251543
H          0.0000235030        -0.0000203847        -0.0000290893
           6
AU Step:          4 Time:       33.0726341742
C         -0.0004003145         0.0000520679         0.0000294648
N          0.0003312745        -0.0000430834        -0.0000243873
H          0.0000270932        -0.0000766577        -0.0001176828
H          0.0000625860         0.0000650020         0.0001109695
H          0.0000436609         0.0000160379         0.0000313602
H          0.0000333385        -0.0000261264        -0.0000368578
           6
AU Step:          5 Time:       41.3407927177
C         -0.0004960724         0.0000645229         0.0000365131
N          0.0004106296        -0.0000534035        -0.0000302290
H          0.0000303846        -0.0000917333        -0.0001410920
H          0.0000729948         0.0000782966         0.0001333418
H          0.0000567564         0.0000176741         0.0000357373
H          0.0000448556        -0.0000309843        -0.0000430079
           6
AU Step:          6 Time:       49.6089512612
C         -0.0005890532         0.0000766167         0.0000433571
N          0.0004877617        -0.0000634344        -0.0000359070
H          0.0000314145        -0.0001041390        -0.0001605738
H          0.0000799949         0.0000896579         0.0001522039
H          0.0000712635         0.0000177770         0.0000378774
H          0.0000584316        -0.0000347614        -0.0000471791
           6
AU Step:          7 Time:       57.8771098048
C         -0.0006788011         0.0000882900         0.0000499632
N          0.0005623088        -0.0000731288        -0.0000413945
H          0.0000297923        -0.0001133996        -0.0001754278
H          0.0000829908         0.0000987389         0.0001669280
H          0.0000874205         0.0000160900         0.0000374069
H          0.0000744130        -0.0000372776        -0.0000490411
           6
AU Step:          8 Time:       66.1452683483
C         -0.0007649101         0.0000994900         0.0000563016
N          0.0006339499        -0.0000824451        -0.0000466680
H          0.0000251632        -0.0001190755        -0.0001850047
H          0.0000814378         0.0001052169         0.0001769314
H          0.0001054401         0.0000123857         0.0000339946
H          0.0000931082        -0.0000383734        -0.0000483015
           6
AU Step:          9 Time:       74.4134268919
C         -0.0008470284         0.0001101710         0.0000623463
N          0.0007024086        -0.0000913472        -0.0000517070
H          0.0000172156        -0.0001207713        -0.0001887194
H          0.0000748526         0.0001087996         0.0001816872
H          0.0001255042         0.0000064710         0.0000273598
H          0.0001147801        -0.0000379139        -0.0000447131
           6
AU Step:         10 Time:       82.6815854354
C         -0.0009248625         0.0001202947         0.0000680758
N          0.0007674559        -0.0000998053        -0.0000564948
H          0.0000056879        -0.0001181446        -0.0001860639
H          0.0000628249         0.0001092320         0.0001807372
H          0.0001477585        -0.0000018068         0.0000172811
H          0.0001396385        -0.0000357928        -0.0000380807
           6
AU Step:         11 Time:       90.9497439789
C         -0.0009981781         0.0001298306         0.0000734728
N          0.0008289109        -0.0001077959        -0.0000610179
H         -0.0000096240        -0.0001109157        -0.0001766212
H          0.0000450284         0.0001063032         0.0001737040
H          0.0001723082        -0.0000125547         0.0000036041
H          0.0001678333        -0.0000319362        -0.0000282690
           6
AU Step:         12 Time:       99.2179025225
C         -0.0010668019         0.0001387563         0.0000785245
N          0.0008866412        -0.0001153018        -0.0000652668
H         -0.0000288602        -0.0000988773        -0.0001600806
H          0.0000212313         0.0000998544         0.0001603044
H          0.0001992131        -0.0000258290        -0.0000137505
H          0.0001994473        -0.0000263063        -0.0000152089
           6
AU Step:         13 Time:      107.4860610660
C         -0.0011306201         0.0001470569         0.0000832226
N          0.0009405621        -0.0001223119        -0.0000692350
H         -0.0000520912        -0.0000819045        -0.0001362515
H         -0.0000086936         0.0000897859         0.0001403620
H          0.0002284849        -0.0000416312        -0.0000347811
H          0.0002344917        -0.0000189052         0.0000010955
           6
AU Step:         14 Time:      115.7542196095
C         -0.0011895776         0.0001547253         0.0000875631
N          0.0009906342        -0.0001288210        -0.0000729197
H         -0.0000793133        -0.0000599637        -0.0001050766
H         -0.0000447601         0.0000760650         0.0001138200
H          0.0002600848        -0.0000599042        -0.0000593994
H          0.0002729020        -0.0000097762         0.0000205635
           6
AU Step:         15 Time:      124.0223781531
C         -0.0012436744         0.0001617616         0.0000915459
N          0.0010368611        -0.0001348297        -0.0000763211
H         -0.0001104464        -0.0000331201        -0.0000666428
H         -0.0000868626         0.0000587330         0.0000807519
H          0.0002939221        -0.0000805317        -0.0000874265
H          0.0003145366         0.0000009945         0.0000430338
           6
AU Step:         16 Time:      132.2905366966
C         -0.0012929627         0.0001681725         0.0000951748
N          0.0010792857        -0.0001403436        -0.0000794426
H         -0.0001453326        -0.0000015456        -0.0000211896
H         -0.0001347720         0.0000379112         0.0000413685
H          0.0003298549        -0.0001033380        -0.0001185910
H          0.0003591763         0.0000132784         0.0000682620
           6
AU Step:         17 Time:      140.5586952402
C         -0.0013375423         0.0001739710         0.0000984572
N          0.0011179861        -0.0001453729        -0.0000822897
H         -0.0001837381         0.0000344729         0.0000308892
H         -0.0001881355         0.0000138105        -0.0000039795
H          0.0003676916        -0.0001280960        -0.0001525271
H          0.0004065277         0.0000269117         0.0000959181
           6
AU Step:         18 Time:      148.8268537837
C         -0.0013775553         0.0001791757         0.0001014036
N          0.0011530715        -0.0001499318        -0.0000848705
H         -0.0002253611         0.0000744904         0.0000890713
H         -0.0002464759        -0.0000132259        -0.0000548273
H          0.0004071904        -0.0001545754        -0.0001887496
H          0.0004562316         0.0000417421         0.0001255615
           6
AU Step:         19 Time:      157.0950123272
C         -0.0013845655         0.0001800919         0.0001019146
N          0.0011690645        -0.0001520086        -0.0000860451
H         -0.0004469219         0.0002113344         0.0002774074
H         -0.0005201157        -0.0000857479        -0.0002067614
H          0.0005713848        -0.0002342570        -0.0002917426
H          0.0006484007         0.0000749168         0.0002023753
           6
AU Step:         20 Time:      165.3631708708
C         -0.0013633281         0.0001773340         0.0001003465
N          0.0011642138        -0.0001513748        -0.0000856853
H         -0.0005909874         0.0003126512         0.0004190317
H         -0.0007040592        -0.0001444565        -0.0003241966
H          0.0006353473        -0.0002726328        -0.0003436271
H          0.0007267802         0.0000947419         0.0002437580
           6
AU Step:         21 Time:      173.6313294143
C         -0.0013917711         0.0001810341         0.0001024416
N          0.0011898805        -0.0001547081        -0.0000875725
H         -0.0006361846         0.0003573757         0.0004836623
H         -0.0007679534        -0.0001750173        -0.0003808221
H          0.0006758974        -0.0002991834        -0.0003803924
H          0.0007775765         0.0001093591         0.0002737790
           6
AU Step:         22 Time:      181.8994879579
C         -0.0014171053         0.0001843297         0.0001043078
N          0.0012129104        -0.0001576983        -0.0000892656
H         -0.0006805350         0.0004007613         0.0005463697
H         -0.0008304222        -0.0002045350        -0.0004356917
H          0.0007154313        -0.0003242986        -0.0004149320
H          0.0008267135         0.0001228874         0.0003017700
           6
AU Step:         23 Time:      190.1676465014
C         -0.0014395501         0.0001872495         0.0001059614
N          0.0012334690        -0.0001603669        -0.0000907769
H         -0.0007236477         0.0004421862         0.0006061756
H         -0.0008907920        -0.0002325255        -0.0004879051
H          0.0007536625        -0.0003475606        -0.0004466725
H          0.0008737293         0.0001350069         0.0003272139
           6
AU Step:         24 Time:      198.4358050449
C         -0.0014593244         0.0001898218         0.0001074184
N          0.0012517221        -0.0001627356        -0.0000921185
H         -0.0007651610         0.0004810448         0.0006621538
H         -0.0009484289        -0.0002585122        -0.0005366084
H          0.0007903248        -0.0003685939        -0.0004750723
H          0.0009181967         0.0001454329         0.0003496211
           6
AU Step:         25 Time:      206.7039635885
C         -0.0014766425         0.0001920745         0.0001086946
N          0.0012678333        -0.0001648257        -0.0000933026
H         -0.0008047490         0.0005167707         0.0007134439
H         -0.0010027529        -0.0002820461        -0.0005810078
H          0.0008251784        -0.0003870635        -0.0004996409
H          0.0009597311         0.0001539119         0.0003685479
           6
AU Step:         26 Time:      214.9721221320
C         -0.0014917110         0.0001940344         0.0001098049
N          0.0012819614        -0.0001666578        -0.0000943410
H         -0.0008421275         0.0005488519         0.0007592694
H         -0.0010532494        -0.0003027183        -0.0006203847
H          0.0008580147        -0.0004026789        -0.0005199511
H          0.0009979982         0.0001602246         0.0003836080
           6
AU Step:         27 Time:      223.2402806756
C         -0.0015047262         0.0001957270         0.0001107639
N          0.0012942583        -0.0001682519        -0.0000952448
H         -0.0008770579         0.0005768411         0.0007989512
H         -0.0010994782        -0.0003201691        -0.0006541091
H          0.0008886589        -0.0004151994        -0.0005356479
H          0.0010327191         0.0001641895         0.0003944802
           6
AU Step:         28 Time:      231.5084392191
C         -0.0015158714         0.0001971760         0.0001115849
N          0.0013048676        -0.0001696265        -0.0000960248
H         -0.0009093501         0.0006003635         0.0008319198
H         -0.0011410797        -0.0003340944        -0.0006816510
H          0.0009169729        -0.0004244378        -0.0005464551
H          0.0010636747         0.0001656662         0.0004009155
           6
AU Step:         29 Time:      239.7765977626
C         -0.0015253164         0.0001984037         0.0001122804
N          0.0013139234        -0.0001707993        -0.0000966907
H         -0.0009388632         0.0006191217         0.0008577222
H         -0.0011777782        -0.0003442509        -0.0007025878
H          0.0009428560        -0.0004302627        -0.0005521797
H          0.0010907083         0.0001645577         0.0004027408
           6
AU Step:         30 Time:      248.0447563062
C         -0.0015332161         0.0001994300         0.0001128618
N          0.0013215493        -0.0001717861        -0.0000972517
H         -0.0009655047         0.0006328987         0.0008760259
H         -0.0012093821        -0.0003504585        -0.0007166081
H          0.0009662448        -0.0004326004        -0.0005527143
H          0.0011137252         0.0001608107         0.0003998606
           6
AU Step:         31 Time:      256.3129148497
C         -0.0015397101         0.0002002731         0.0001133394
N          0.0013278584        -0.0001726019        -0.0000977163
H         -0.0009892290         0.0006415583         0.0008866206
H         -0.0012357829        -0.0003526009        -0.0007235127
H          0.0009871126        -0.0004314340        -0.0005480365
H          0.0011326929         0.0001544165         0.0003922576
           6
AU Step:         32 Time:      264.5810733933
C         -0.0015449231         0.0002009494         0.0001137223
N          0.0013329526        -0.0001732599        -0.0000980919
H         -0.0010100345         0.0006450432         0.0008894157
H         -0.0012569515        -0.0003506251        -0.0007232130
H          0.0010054675        -0.0004268024        -0.0005382074
H          0.0011476380         0.0001454097         0.0003799909
           6
AU Step:         33 Time:      272.8492319368
C         -0.0015489650         0.0002014730         0.0001140186
N          0.0013369236        -0.0001737720        -0.0000983853
H         -0.0010279596         0.0006433721         0.0008844346
H         -0.0012729331        -0.0003445392        -0.0007157270
H          0.0010213504        -0.0004187982        -0.0005233684
H          0.0011586436         0.0001338669         0.0003631927
           6
AU Step:         34 Time:      281.1173904803
C         -0.0015519318         0.0002018566         0.0001142355
N          0.0013398521        -0.0001741487        -0.0000986024
H         -0.0010430786         0.0006366343         0.0008718085
H         -0.0012838405        -0.0003344085        -0.0007011723
H          0.0010348323        -0.0004075640        -0.0005037362
H          0.0011658448         0.0001199036         0.0003420645
           6
AU Step:         35 Time:      289.3855490239
C         -0.0015539062         0.0002021110         0.0001143791
N          0.0013418091        -0.0001743992        -0.0000987484
H         -0.0010554974         0.0006249845         0.0008517679
H         -0.0012898480        -0.0003203522        -0.0006797594
H          0.0010460106        -0.0003932888        -0.0004795970
H          0.0011694241         0.0001036723         0.0003168717
           6
AU Step:         36 Time:      297.6537075674
C         -0.0015549589         0.0002022453         0.0001144546
N          0.0013428563        -0.0001745316        -0.0000988280
H         -0.0010653486         0.0006086366         0.0008246333
H         -0.0012911835        -0.0003025375        -0.0006517829
H          0.0010550068        -0.0003762034        -0.0004512999
H          0.0011696065         0.0000853586         0.0002879380
           6
AU Step:         37 Time:      305.9218661109
C         -0.0015551494         0.0002022674         0.0001144665
N          0.0013430465        -0.0001745526        -0.0000988449
H         -0.0010727872         0.0005878567         0.0007908054
H         -0.0012881208        -0.0002811756        -0.0006176123
H          0.0010619627        -0.0003565759        -0.0004192507
H          0.0011666542         0.0000651781         0.0002556392
           6
AU Step:         38 Time:      314.1900246545
C         -0.0015545272         0.0002021838         0.0001144184
N          0.0013424244        -0.0001744682        -0.0000988024
H         -0.0010779861         0.0005629568         0.0007507546
H         -0.0012809729        -0.0002565159        -0.0005776831
H          0.0010670372        -0.0003347072        -0.0003839041
H          0.0011608610         0.0000433725         0.0002203967
           6
AU Step:         39 Time:      322.4581831980
C         -0.0015531327         0.0002019997         0.0001143134
N          0.0013410275        -0.0001742831        -0.0000987033
H         -0.0010811322         0.0005342882         0.0007050121
H         -0.0012700848        -0.0002288410        -0.0005324877
H          0.0010704036        -0.0003109259        -0.0003457571
H          0.0011525473         0.0000202057         0.0001826703
           6
AU Step:         40 Time:      330.7263417416
C         -0.0015509985         0.0002017195         0.0001141539
N          0.0013388868        -0.0001740013        -0.0000985497
H         -0.0010824229         0.0005022352         0.0006541601
H         -0.0012558272        -0.0001984618        -0.0004825667
H          0.0010722459        -0.0002855836        -0.0003053413
H          0.0011420546        -0.0000040397         0.0001429527
           6
AU Step:         41 Time:      338.9945002851
C         -0.0015481499         0.0002013465         0.0001139418
N          0.0013360273        -0.0001736261        -0.0000983436
H         -0.0010820627         0.0004672097         0.0005988234
H         -0.0012385903        -0.0001657131        -0.0004285012
H          0.0010727562        -0.0002590497        -0.0002632155
H          0.0011297410        -0.0000290657         0.0001017623
           6
AU Step:         42 Time:      347.2626588286
C         -0.0015446065         0.0002008832         0.0001136784
N          0.0013324690        -0.0001731600        -0.0000980864
H         -0.0010802603         0.0004296454         0.0005396610
H         -0.0012187793        -0.0001309493        -0.0003709048
H          0.0010721321        -0.0002317076        -0.0002199596
H          0.0011159761        -0.0000545636         0.0000596366
           6
AU Step:         43 Time:      355.5308173722
C         -0.0015403823         0.0002003315         0.0001133649
N          0.0013282274        -0.0001726051        -0.0000977793
H         -0.0010772265         0.0003899935         0.0004773589
H         -0.0011968094        -0.0000945405        -0.0003104177
H          0.0010705741        -0.0002039492        -0.0001761669
H          0.0011011362        -0.0000802167         0.0000171262
           6
AU Step:         44 Time:      363.7989759157
C         -0.0015354868         0.0001996927         0.0001130019
N          0.0013233147        -0.0001719627        -0.0000974229
H         -0.0010731719         0.0003487181         0.0004126240
H         -0.0011731022        -0.0000568691        -0.0002477003
H          0.0010682826        -0.0001761712        -0.0001324377
H          0.0010855999        -0.0001057048        -0.0000252122
           6
AU Step:         45 Time:      372.0671344593
C         -0.0015299254         0.0001989675         0.0001125899
N          0.0013177396        -0.0001712341        -0.0000970180
H         -0.0010683054         0.0003062925         0.0003461781
H         -0.0011480818        -0.0000183264        -0.0001834278
H          0.0010654562        -0.0001487695        -0.0000893720
H          0.0010697438        -0.0001307070        -0.0000668211
           6
AU Step:         46 Time:      380.3352930028
C         -0.0015237005         0.0001981562         0.0001121289
N          0.0013115088        -0.0001704200        -0.0000965652
H         -0.0010628329         0.0002631960         0.0002787527
H         -0.0011221723         0.0000206898        -0.0001182848
H          0.0010622889        -0.0001221358        -0.0000475627
H          0.0010539382        -0.0001549056        -0.0001071490
           6
AU Step:         47 Time:      388.6034515463
C         -0.0015168114         0.0001972587         0.0001116191
N          0.0013046273        -0.0001695210        -0.0000960645
H         -0.0010569558         0.0002199103         0.0002110837
H         -0.0010957949         0.0000597783        -0.0000529615
H          0.0010589679        -0.0000966524        -0.0000075893
H          0.0010385421        -0.0001779905        -0.0001456576
           6
AU Step:         48 Time:      396.8716100899
C         -0.0015092552         0.0001962749         0.0001110600
N          0.0012970990        -0.0001685376        -0.0000955165
H         -0.0010508700         0.0001769167         0.0001439074
H         -0.0010693656         0.0000985369         0.0000118510
H          0.0010556714        -0.0000726875         0.0000299900
H          0.0010238994        -0.0001996619        -0.0001818276
           6
AU Step:         49 Time:      405.1397686334
C         -0.0015010272         0.0001952039         0.0001104514
N          0.0012889277        -0.0001674702        -0.0000949212
H         -0.0010447655         0.0001346935         0.0000779560
H         -0.0010432928         0.0001365648         0.0000754650
H          0.0010525660        -0.0000505907         0.0000646451
H          0.0010103344        -0.0002196352        -0.0002151653
           6
AU Step:         50 Time:      413.4079271770
C         -0.0014921212         0.0001940452         0.0001097927
N          0.0012801172        -0.0001663193        -0.0000942789
H         -0.0010388248         0.0000937123         0.0000139522
H         -0.0010179753         0.0001734653         0.0001372006
H          0.0010498049        -0.0000306878         0.0000958817
H          0.0009981471        -0.0002376442        -0.0002452101
           6
AU Step:         51 Time:      421.6760857205
C         -0.0014825301         0.0001927978         0.0001090835
N          0.0012706725        -0.0001650853        -0.0000935901
H         -0.0010332224         0.0000544354        -0.0000473947
H         -0.0009937996         0.0002088484         0.0001963900
H          0.0010475250        -0.0000132761         0.0001232487
H          0.0009876083        -0.0002534459        -0.0002715414
           6
AU Step:         52 Time:      429.9442442640
C         -0.0014722466         0.0001914609         0.0001083233
N          0.0012606004        -0.0001637692        -0.0000928551
H         -0.0010281235         0.0000173121        -0.0001053948
H         -0.0009711378         0.0002423340         0.0002523828
H          0.0010458446         0.0000013810         0.0001463459
H          0.0009789556        -0.0002668239        -0.0002937853
           6
AU Step:         53 Time:      438.2124028076
C         -0.0014612631         0.0001900334         0.0001075114
N          0.0012499096        -0.0001623719        -0.0000920747
H         -0.0010236836        -0.0000172247        -0.0001593829
H         -0.0009503442         0.0002735548         0.0003045516
H          0.0010448612         0.0000130588         0.0001648320
H          0.0009723879        -0.0002775935        -0.0003116228
           6
AU Step:         54 Time:      446.4805613511
C         -0.0014495725         0.0001885146         0.0001066473
N          0.0012386121        -0.0001608949        -0.0000912496
H         -0.0010200466        -0.0000487630        -0.0002087248
H         -0.0009317529         0.0003021601         0.0003522974
H          0.0010446492         0.0000215761         0.0001784316
H          0.0009680617        -0.0002856046        -0.0003247956
           6
AU Step:         55 Time:      454.7487198947
C         -0.0014371691         0.0001869037         0.0001057305
N          0.0012267231        -0.0001593401        -0.0000903810
H         -0.0010173442        -0.0000769158        -0.0002528246
H         -0.0009156739         0.0003278197         0.0003950574
H          0.0010452575         0.0000268007         0.0001869428
H          0.0009660861        -0.0002907464        -0.0003331133
           6
AU Step:         56 Time:      463.0168784382
C         -0.0014240486         0.0001852003         0.0001047608
N          0.0012142620        -0.0001577100        -0.0000894703
H         -0.0010156937        -0.0001013268        -0.0002911328
H         -0.0009023893         0.0003502283         0.0004323114
H          0.0010467079         0.0000286522         0.0001902430
H          0.0009665195        -0.0002929505        -0.0003364592
           6
AU Step:         57 Time:      471.2850369817
C         -0.0014102089         0.0001834042         0.0001037381
N          0.0012012526        -0.0001560074        -0.0000885194
H         -0.0010151967        -0.0001216756        -0.0003231545
H         -0.0008921492         0.0003691101         0.0004635908
H          0.0010489934         0.0000271065         0.0001882944
H          0.0009693664        -0.0002921938        -0.0003347957
           6
AU Step:         58 Time:      479.5531955253
C         -0.0013956510         0.0001815155         0.0001026622
N          0.0011877235        -0.0001542362        -0.0000875302
H         -0.0010159376        -0.0001376834        -0.0003484583
H         -0.0008851675         0.0003842242         0.0004884864
H          0.0010520766         0.0000221989         0.0001811492
H          0.0009745744        -0.0002885011        -0.0003281675
           6
AU Step:         59 Time:      487.8213540688
C         -0.0013803794         0.0001795351         0.0001015336
N          0.0011737086        -0.0001524005        -0.0000865055
H         -0.0010179813        -0.0001491196        -0.0003666863
H         -0.0008816164         0.0003953695         0.0005066584
H          0.0010558893         0.0000140248         0.0001689510
H          0.0009820332        -0.0002819460        -0.0003167045
           6
AU Step:         60 Time:      496.0895126123
C         -0.0013644027         0.0001774640         0.0001003527
N          0.0011592468        -0.0001505053        -0.0000854481
H         -0.0010213716        -0.0001558074        -0.0003775630
H         -0.0008816225         0.0004023902         0.0005178445
H          0.0010603326         0.0000027407         0.0001519360
H          0.0009915741        -0.0002726519        -0.0003006227
           6
AU Step:         61 Time:      504.3576711559
C         -0.0013477347         0.0001753042         0.0000991207
N          0.0011443822        -0.0001485563        -0.0000843613
H         -0.0010261293        -0.0001576309        -0.0003809056
H         -0.0008852615         0.0004051811         0.0005218696
H          0.0010652776        -0.0000114366         0.0001304315
H          0.0010029719        -0.0002607904        -0.0002802217
           6
AU Step:         62 Time:      512.6258296994
C         -0.0013303944         0.0001730583         0.0000978387
N          0.0011291639        -0.0001465596        -0.0000832488
H         -0.0010322503        -0.0001545399        -0.0003766326
H         -0.0008925541         0.0004036926         0.0005186543
H          0.0010705669        -0.0000282333         0.0001048520
H          0.0010159465        -0.0002465804        -0.0002558826
           6
AU Step:         63 Time:      520.8939882430
C         -0.0013124068         0.0001707297         0.0000965086
N          0.0011136454        -0.0001445222        -0.0000821148
H         -0.0010397041        -0.0001465557        -0.0003647711
H         -0.0009034616         0.0003979351         0.0005082220
H          0.0010760167        -0.0000473223         0.0000756925
H          0.0010301679        -0.0002302841        -0.0002280613
           6
AU Step:         64 Time:      529.1621467865
C         -0.0012938038         0.0001683228         0.0000951325
N          0.0010978842        -0.0001424513        -0.0000809636
H         -0.0010484327        -0.0001337748        -0.0003454639
H         -0.0009178834         0.0003879827         0.0004907057
H          0.0010814207        -0.0000683289         0.0000435207
H          0.0010452619        -0.0002122024        -0.0001972807
           6
AU Step:         65 Time:      537.4303053300
C         -0.0012746235         0.0001658426         0.0000937131
N          0.0010819409        -0.0001403546        -0.0000797998
H         -0.0010583498        -0.0001163723        -0.0003189737
H         -0.0009356544         0.0003739750         0.0004663511
H          0.0010865535        -0.0000908386         0.0000089652