 Entering Gaussian System, Link 0=g09
 Input=gaussian.gjf
 Output=gaussian.log
 Initial command:
 /opt/g09_D01_em64t/g09/l1.exe "/tmp/Gau-16981.inp" -scrdir="/tmp/"
 Entering Link 1 = /opt/g09_D01_em64t/g09/l1.exe PID=     16982.
  
 Copyright (c) 1988,1990,1992,1993,1995,1998,2003,2009,2013,
            Gaussian, Inc.  All Rights Reserved.
  
 This is part of the Gaussian(R) 09 program.  It is based on
 the Gaussian(R) 03 system (copyright 2003, Gaussian, Inc.),
 the Gaussian(R) 98 system (copyright 1998, Gaussian, Inc.),
 the Gaussian(R) 94 system (copyright 1995, Gaussian, Inc.),
 the Gaussian 92(TM) system (copyright 1992, Gaussian, Inc.),
 the Gaussian 90(TM) system (copyright 1990, Gaussian, Inc.),
 the Gaussian 88(TM) system (copyright 1988, Gaussian, Inc.),
 the Gaussian 86(TM) system (copyright 1986, Carnegie Mellon
 University), and the Gaussian 82(TM) system (copyright 1983,
 Carnegie Mellon University). Gaussian is a federally registered
 trademark of Gaussian, Inc.
  
 This software contains proprietary and confidential information,
 including trade secrets, belonging to Gaussian, Inc.
  
 This software is provided under written license and may be
 used, copied, transmitted, or stored only in accord with that
 written license.
  
 The following legend is applicable only to US Government
 contracts under FAR:
  
                    RESTRICTED RIGHTS LEGEND
  
 Use, reproduction and disclosure by the US Government is
 subject to restrictions as set forth in subparagraphs (a)
 and (c) of the Commercial Computer Software - Restricted
 Rights clause in FAR 52.227-19.
  
 Gaussian, Inc.
 340 Quinnipiac St., Bldg. 40, Wallingford CT 06492
  
  
 ---------------------------------------------------------------
 Warning -- This program may not be used in any manner that
 competes with the business of Gaussian, Inc. or will provide
 assistance to any competitor of Gaussian, Inc.  The licensee
 of this program is prohibited from giving any competitor of
 Gaussian, Inc. access to this program.  By using this program,
 the user acknowledges that Gaussian, Inc. is engaged in the
 business of creating and licensing software in the field of
 computational chemistry and represents and warrants to the
 licensee that it is not a competitor of Gaussian, Inc. and that
 it will not use this program in any manner prohibited above.
 ---------------------------------------------------------------
  

 Cite this work as:
 Gaussian 09, Revision D.01,
 M. J. Frisch, G. W. Trucks, H. B. Schlegel, G. E. Scuseria, 
 M. A. Robb, J. R. Cheeseman, G. Scalmani, V. Barone, B. Mennucci, 
 G. A. Petersson, H. Nakatsuji, M. Caricato, X. Li, H. P. Hratchian, 
 A. F. Izmaylov, J. Bloino, G. Zheng, J. L. Sonnenberg, M. Hada, 
 M. Ehara, K. Toyota, R. Fukuda, J. Hasegawa, M. Ishida, T. Nakajima, 
 Y. Honda, O. Kitao, H. Nakai, T. Vreven, J. A. Montgomery, Jr., 
 J. E. Peralta, F. Ogliaro, M. Bearpark, J. J. Heyd, E. Brothers, 
 K. N. Kudin, V. N. Staroverov, T. Keith, R. Kobayashi, J. Normand, 
 K. Raghavachari, A. Rendell, J. C. Burant, S. S. Iyengar, J. Tomasi, 
 M. Cossi, N. Rega, J. M. Millam, M. Klene, J. E. Knox, J. B. Cross, 
 V. Bakken, C. Adamo, J. Jaramillo, R. Gomperts, R. E. Stratmann, 
 O. Yazyev, A. J. Austin, R. Cammi, C. Pomelli, J. W. Ochterski, 
 R. L. Martin, K. Morokuma, V. G. Zakrzewski, G. A. Voth, 
 P. Salvador, J. J. Dannenberg, S. Dapprich, A. D. Daniels, 
 O. Farkas, J. B. Foresman, J. V. Ortiz, J. Cioslowski, 
 and D. J. Fox, Gaussian, Inc., Wallingford CT, 2013.
 
 ******************************************
 Gaussian 09:  EM64L-G09RevD.01 24-Apr-2013
                29-Apr-2014 
 ******************************************
 %chk=gaussian.chk
 %mem=1GB
 %nproc=2
 Will use up to    2 processors via shared memory.
 %nproclinda=1
 Will use up to    1 processors via Linda.
 ----------------------------------------------------------------------
 # b3lyp/6-31g* scf=(tight,maxcycle=10000) iop(9/40=20) nosymm pop=full
 ----------------------------------------------------------------------
 1/38=1/1;
 2/12=2,15=1,17=6,18=5,40=1/2;
 3/5=1,6=6,7=1,11=2,16=1,25=1,30=1,74=-5/1,2,3;
 4//1;
 5/5=2,7=10000,32=2,38=5/2;
 6/7=3,28=1/1;
 99/5=1,9=1/99;
 -------
 [0] [0]
 -------
 Symbolic Z-matrix:
 Charge =  1 Multiplicity = 1
 c                    -2.76467  -0.30351   1.07672 
 n                    -2.43086  -1.70264   1.56766 
 h                    -2.68898   0.29574   1.96047 
 h                    -3.12108   0.4338    0.17176 
 h                    -2.6496   -2.73272   0.91025 
 h                    -1.95428  -2.39264   2.22226 
 
                          Input orientation:                          
 ---------------------------------------------------------------------
 Center     Atomic      Atomic             Coordinates (Angstroms)
 Number     Number       Type             X           Y           Z
 ---------------------------------------------------------------------
      1          6           0       -2.764675   -0.303508    1.076722
      2          7           0       -2.430858   -1.702641    1.567662
      3          1           0       -2.688980    0.295742    1.960471
      4          1           0       -3.121084    0.433796    0.171765
      5          1           0       -2.649603   -2.732721    0.910253
      6          1           0       -1.954279   -2.392638    2.222261
 ---------------------------------------------------------------------
                    Distance matrix (angstroms):
                    1          2          3          4          5
     1  C    0.000000
     2  N    1.519878   0.000000
     3  H    1.070440   2.052915   0.000000
     4  H    1.220488   2.643729   1.845330   0.000000
     5  H    2.437628   1.241410   3.205634   3.285497   0.000000
     6  H    2.516638   1.063825   2.799233   3.681670   1.523318
                    6
     6  H    0.000000
 Symmetry turned off by external request.
 Stoichiometry    CH4N(1+)
 Framework group  C1[X(CH4N)]
 Deg. of freedom    12
 Full point group                 C1      NOp   1
 Rotational constants (GHZ):    182.6241229     20.7375901     18.7044716
 Standard basis: 6-31G(d) (6D, 7F)
    38 basis functions,    72 primitive gaussians,    38 cartesian basis functions
     8 alpha electrons        8 beta electrons
       nuclear repulsion energy        33.7194136159 Hartrees.
 NAtoms=    6 NActive=    6 NUniq=    6 SFac= 1.00D+00 NAtFMM=   60 NAOKFM=F Big=F
 Integral buffers will be    131072 words long.
 Raffenetti 2 integral format.
 Two-electron integral symmetry is turned off.
 One-electron integrals computed using PRISM.
 NBasis=    38 RedAO= T EigKep=  1.27D-02  NBF=    38
 NBsUse=    38 1.00D-06 EigRej= -1.00D+00 NBFU=    38
 ExpMin= 1.61D-01 ExpMax= 4.17D+03 ExpMxC= 6.27D+02 IAcc=1 IRadAn=         1 AccDes= 0.00D+00
 Harris functional with IExCor=  402 and IRadAn=       1 diagonalized for initial guess.
 HarFok:  IExCor=  402 AccDes= 0.00D+00 IRadAn=         1 IDoV= 1 UseB2=F ITyADJ=14
 ICtDFT=  3500011 ScaDFX=  1.000000  1.000000  1.000000  1.000000
 FoFCou: FMM=F IPFlag=           0 FMFlag=      100000 FMFlg1=           0
         NFxFlg=           0 DoJE=T BraDBF=F KetDBF=T FulRan=T
         wScrn=  0.000000 ICntrl=     500 IOpCl=  0 I1Cent=   200000004 NGrid=           0
         NMat0=    1 NMatS0=      1 NMatT0=    0 NMatD0=    1 NMtDS0=    0 NMtDT0=    0
 Symmetry not used in FoFCou.
 Keep R1 ints in memory in canonical form, NReq=101191747.
 Requested convergence on RMS density matrix=1.00D-08 within**** cycles.
 Requested convergence on MAX density matrix=1.00D-06.
 Requested convergence on             energy=1.00D-06.
 No special actions if energy rises.
 Integral accuracy reduced to 1.0D-05 until final iterations.
 Initial convergence to 1.0D-05 achieved.  Increase integral accuracy.
 SCF Done:  E(RB3LYP) =  -94.8180803536     A.U. after   12 cycles
            NFock= 12  Conv=0.43D-08     -V/T= 2.0190

 **********************************************************************

            Population analysis using the SCF density.

 **********************************************************************

 Alpha  occ. eigenvalues --  -14.69608 -10.59249  -1.14559  -0.94881  -0.77938
 Alpha  occ. eigenvalues --   -0.72351  -0.63812  -0.58204
 Alpha virt. eigenvalues --   -0.36322  -0.26533  -0.20540  -0.12066  -0.07607
 Alpha virt. eigenvalues --   -0.02771   0.24567   0.28846   0.32209   0.43884
 Alpha virt. eigenvalues --    0.45003   0.49654   0.53794   0.55536   0.63462
 Alpha virt. eigenvalues --    0.72333   0.82325   0.87297   1.13275   1.30707
 Alpha virt. eigenvalues --    1.44718   1.46297   1.56927   1.64787   1.86476
 Alpha virt. eigenvalues --    1.88458   2.09487   2.38887   3.30844   3.81312
     Molecular Orbital Coefficients:
                           1         2         3         4         5
                           O         O         O         O         O
     Eigenvalues --   -14.69608 -10.59249  -1.14559  -0.94881  -0.77938
   1 1   C  1S          0.00001   0.99296  -0.08791  -0.17220  -0.04181
   2        2S          0.00004   0.04686   0.18697   0.37398   0.08462
   3        2PX         0.00006   0.00009   0.02385  -0.00363  -0.08306
   4        2PY        -0.00025  -0.00067  -0.08846   0.05073   0.37290
   5        2PZ         0.00008   0.00026   0.04547   0.04788  -0.09232
   6        3S         -0.00041  -0.00921   0.10721   0.30805   0.15975
   7        3PX        -0.00005  -0.00003  -0.00227  -0.01099  -0.02692
   8        3PY         0.00023  -0.00038   0.01094   0.04796   0.11472
   9        3PZ        -0.00008  -0.00077   0.00160  -0.00510  -0.02812
  10        4XX         0.00002  -0.00926  -0.00895  -0.01582  -0.00164
  11        4YY         0.00021  -0.00886   0.01073   0.00283  -0.01650
  12        4ZZ         0.00003  -0.00903  -0.00165   0.00603   0.01492
  13        4XY        -0.00006  -0.00010  -0.00568  -0.00439   0.00253
  14        4XZ         0.00002   0.00008   0.00326   0.00604   0.00394
  15        4YZ        -0.00008  -0.00007  -0.00657  -0.00069   0.00750
  16 2   N  1S          0.99284  -0.00013  -0.19469   0.05917   0.03073
  17        2S          0.03405   0.00000   0.42269  -0.13200  -0.07662
  18        2PX         0.00009   0.00003   0.00790  -0.07039   0.12428
  19        2PY        -0.00010  -0.00014   0.00249   0.24173  -0.32878
  20        2PZ        -0.00016   0.00006  -0.00604  -0.07511   0.17329
  21        3S          0.00381   0.00196   0.43620  -0.16076  -0.08418
  22        3PX        -0.00002   0.00009   0.00345  -0.03450   0.06499
  23        3PY         0.00001  -0.00018  -0.01224   0.13411  -0.17050
  24        3PZ         0.00006   0.00013  -0.00768  -0.03119   0.08869
  25        4XX        -0.00805  -0.00013  -0.01088   0.00180   0.00146
  26        4YY        -0.00807  -0.00076   0.01962  -0.00228   0.00643
  27        4ZZ        -0.00804  -0.00022  -0.00319  -0.00278   0.00310
  28        4XY         0.00001   0.00019  -0.00900   0.00264  -0.00467
  29        4XZ         0.00000  -0.00006   0.00953  -0.00599   0.00431
  30        4YZ         0.00002   0.00027  -0.00815  -0.00069  -0.00158
  31 3   H  1S          0.00001  -0.00025   0.04681   0.15168   0.10436
  32        2S         -0.00007   0.00244  -0.00221   0.02670   0.04203
  33 4   H  1S         -0.00001  -0.00029   0.02189   0.11382   0.17545
  34        2S         -0.00002   0.00145  -0.00557   0.01712   0.08167
  35 5   H  1S          0.00021  -0.00018   0.08361  -0.08051   0.04660
  36        2S         -0.00030   0.00007   0.00195  -0.01516   0.02342
  37 6   H  1S          0.00031  -0.00001   0.12202  -0.14222   0.16877
  38        2S         -0.00048  -0.00046   0.00056  -0.01997   0.06710
                           6         7         8         9        10
                           O         O         O         V         V
     Eigenvalues --    -0.72351  -0.63812  -0.58204  -0.36322  -0.26533
   1 1   C  1S          0.01860   0.00978  -0.00423   0.00553   0.11791
   2        2S         -0.03920  -0.02437   0.01012  -0.01366  -0.25554
   3        2PX         0.08966  -0.04477   0.31479   0.52774  -0.05207
   4        2PY         0.06321   0.12126   0.07555   0.11319   0.27071
   5        2PZ         0.36052   0.31768   0.02322  -0.13055   0.10434
   6        3S         -0.06308  -0.02209   0.01253  -0.02835  -0.85083
   7        3PX         0.03819  -0.01971   0.18812   0.46281  -0.05678
   8        3PY         0.01098   0.03273   0.04241   0.08994   0.33013
   9        3PZ         0.14225   0.15824   0.00223  -0.10127   0.12647
  10        4XX        -0.00007  -0.00573   0.00526  -0.00535  -0.00048
  11        4YY        -0.00787   0.00256  -0.00164   0.00376   0.02763
  12        4ZZ         0.01025   0.00440  -0.00487   0.00301   0.00557
  13        4XY         0.00248   0.01252  -0.01250   0.01364  -0.01515
  14        4XZ        -0.00007  -0.00738   0.00369   0.00104   0.00699
  15        4YZ         0.01256   0.02721   0.01877  -0.00981  -0.02137
  16 2   N  1S         -0.00100   0.01602   0.01375  -0.00992  -0.12544
  17        2S          0.00858  -0.04343  -0.03471   0.02081   0.25896
  18        2PX         0.12688  -0.25228   0.41729  -0.33979   0.03407
  19        2PY         0.11853  -0.20962  -0.01221  -0.02527   0.09919
  20        2PZ         0.31228  -0.21721  -0.31136   0.17158  -0.06549
  21        3S         -0.02536  -0.06012  -0.05205   0.06486   1.08039
  22        3PX         0.07238  -0.15881   0.30081  -0.31703   0.04701
  23        3PY         0.07426  -0.15511  -0.01070  -0.02704   0.13156
  24        3PZ         0.18095  -0.13514  -0.21884   0.16843  -0.06906
  25        4XX         0.00368  -0.00512  -0.00309  -0.01139  -0.01147
  26        4YY         0.00002   0.01464   0.00649   0.00512  -0.02836
  27        4ZZ        -0.00283  -0.00411  -0.00021   0.00206  -0.01747
  28        4XY        -0.00546   0.00610   0.00774   0.02369   0.01006
  29        4XZ         0.00055  -0.00336  -0.00590  -0.00531  -0.00618
  30        4YZ        -0.00862   0.02552   0.00632  -0.00309   0.02344
  31 3   H  1S          0.16514   0.19426   0.06599  -0.01955   0.00103
  32        2S          0.09414   0.13065   0.05002  -0.01864   0.02855
  33 4   H  1S         -0.15850  -0.13456  -0.05673   0.02299   0.20071
  34        2S         -0.09280  -0.09708  -0.05220   0.04478   0.51377
  35 5   H  1S         -0.14650   0.20950   0.06765   0.02864  -0.04361
  36        2S         -0.08909   0.16582   0.06417   0.04642  -0.22178
  37 6   H  1S          0.10629  -0.10896  -0.02415  -0.04522  -0.20376
  38        2S          0.05621  -0.07960  -0.02214  -0.06905  -0.59350
                          11        12        13        14        15
                           V         V         V         V         V
     Eigenvalues --    -0.20540  -0.12066  -0.07607  -0.02771   0.24567
   1 1   C  1S          0.03731   0.08057   0.05659  -0.04914  -0.00850
   2        2S         -0.08653  -0.15014  -0.14733   0.07569   0.40595
   3        2PX        -0.00238   0.09763  -0.03410   0.14533   0.07746
   4        2PY        -0.05435  -0.20210  -0.21127  -0.36238  -0.81663
   5        2PZ         0.10459   0.13984  -0.30861   0.35953  -0.22672
   6        3S         -0.35137  -1.08703  -0.92926   0.78568  -0.63780
   7        3PX         0.01849   0.14686  -0.04114   0.37898  -0.23427
   8        3PY        -0.14164  -0.30723  -0.78508  -1.14387   1.64388
   9        3PZ         0.16831   0.12512  -0.75237   0.90533   0.12783
  10        4XX         0.00179  -0.00488   0.00231   0.00601   0.02514
  11        4YY        -0.00447   0.01815  -0.01922  -0.03780   0.04138
  12        4ZZ         0.01187   0.00303   0.01443   0.01663  -0.00741
  13        4XY        -0.01002   0.00275   0.00653   0.00815  -0.00939
  14        4XZ         0.01091  -0.00092   0.00003   0.00162  -0.00205
  15        4YZ        -0.02461   0.00509   0.01983   0.00541  -0.02745
  16 2   N  1S          0.05596   0.03527  -0.00593   0.04603   0.01277
  17        2S         -0.10194  -0.05647  -0.01605  -0.05916   0.00701
  18        2PX         0.09515  -0.17432   0.08977   0.10168   0.04964
  19        2PY         0.33220   0.05249  -0.10893  -0.35371   0.00870
  20        2PZ         0.20478  -0.30131   0.15400   0.11509   0.07603
  21        3S         -0.62337  -0.53249   0.13443  -0.62595   0.74917
  22        3PX         0.12997  -0.28668   0.17725   0.30174  -0.15492
  23        3PY         0.43314   0.15366  -0.17868  -1.09916   0.31907
  24        3PZ         0.29030  -0.45664   0.36230   0.35389  -0.30624
  25        4XX         0.00864   0.00664  -0.00793   0.00383  -0.03356
  26        4YY         0.01208   0.00619  -0.02239   0.04948   0.13584
  27        4ZZ         0.00595   0.00910   0.01015  -0.00274  -0.01244
  28        4XY         0.01087  -0.00548   0.00390  -0.01062  -0.04026
  29        4XZ        -0.00409   0.00059   0.00414   0.00008   0.02588
  30        4YZ         0.02454  -0.00836   0.00135  -0.00478  -0.04970
  31 3   H  1S         -0.05112   0.07006   0.13777   0.00059  -0.17678
  32        2S         -0.04540   0.61600   1.86790  -0.60919  -0.06145
  33 4   H  1S          0.12091   0.11372  -0.06120   0.03425   0.09053
  34        2S          0.51670   0.94741   0.02448   1.26785  -0.46883
  35 5   H  1S          0.26723  -0.10207   0.00382   0.02118   0.23992
  36        2S          1.09274  -0.40165   0.14043  -0.24380  -0.10443
  37 6   H  1S         -0.06210   0.15176  -0.07121   0.02398   0.14760
  38        2S          0.05640   1.15664  -0.66375  -0.90693  -0.04755
                          16        17        18        19        20
                           V         V         V         V         V
     Eigenvalues --     0.28846   0.32209   0.43884   0.45003   0.49654
   1 1   C  1S         -0.00619  -0.03281  -0.05125   0.02124  -0.00167
   2        2S         -0.02206  -0.04133  -0.65153   0.30557   0.10223
   3        2PX        -0.98855   0.02358   0.10585   0.13285   0.03743
   4        2PY        -0.14825   0.15569  -0.09090   0.08255  -0.17238
   5        2PZ         0.13007  -0.59950  -0.02445  -0.08461   0.04100
   6        3S          0.12748   0.72757   1.15908  -0.56248  -0.40130
   7        3PX         1.15544   0.27610  -0.32716  -0.34245  -0.19732
   8        3PY         0.02003  -0.96754   0.90862  -0.53307   0.55178
   9        3PZ         0.00483   1.57305   0.32971   0.13504  -0.19624
  10        4XX        -0.00383   0.03842   0.06408  -0.01918   0.00561
  11        4YY        -0.01025  -0.05501  -0.10268   0.02490  -0.03327
  12        4ZZ         0.00692   0.01806  -0.18461   0.09201   0.02122
  13        4XY         0.02301  -0.01703   0.04427  -0.03560   0.00210
  14        4XZ        -0.00457   0.01708  -0.07652   0.04183   0.01495
  15        4YZ        -0.01713  -0.06766   0.05103  -0.01616  -0.02623
  16 2   N  1S          0.00150   0.01293  -0.01926   0.00768  -0.01264
  17        2S         -0.04158  -0.17985  -0.16620   0.04641   0.15099
  18        2PX        -0.15944   0.02789  -0.24382  -0.79537  -0.17099
  19        2PY        -0.06129  -0.14566  -0.22960   0.02195  -0.66654
  20        2PZ         0.03941  -0.28401   0.32904   0.34843  -0.22295
  21        3S         -0.05475  -0.48179   0.46525  -0.14191  -0.18961
  22        3PX        -0.00426   0.19165   0.25385   1.03188   0.20674
  23        3PY        -0.12022  -0.63980   0.39989  -0.10836   1.14838
  24        3PZ         0.02967   0.34665  -0.56304  -0.34511   0.28451
  25        4XX         0.00265  -0.02049   0.00519  -0.00304   0.05858
  26        4YY        -0.01119  -0.03698  -0.08896   0.04619  -0.02610
  27        4ZZ        -0.01376  -0.04525  -0.04977   0.01174   0.00468
  28        4XY        -0.01000   0.06010   0.01254  -0.01669  -0.02870
  29        4XZ        -0.00061  -0.03629  -0.02492   0.01377  -0.02562
  30        4YZ         0.03182   0.10233   0.01785   0.03950  -0.06514
  31 3   H  1S         -0.04554  -0.26568  -0.45304   0.22954  -0.09862
  32        2S         -0.05817  -0.41549  -0.55757   0.19536   0.03108
  33 4   H  1S          0.01855   0.19019  -0.67746   0.27603   0.41796
  34        2S          0.13622   0.68722   0.18263   0.04639  -0.60677
  35 5   H  1S          0.10031   0.33167  -0.09725   0.23235  -0.74641
  36        2S         -0.16139  -0.58005  -0.02283  -0.25489   1.44333
  37 6   H  1S         -0.12887  -0.42117  -0.22438   0.01894  -0.07114
  38        2S          0.08750   0.18965   0.39483  -0.09776  -0.00492
                          21        22        23        24        25
                           V         V         V         V         V
     Eigenvalues --     0.53794   0.55536   0.63462   0.72333   0.82325
   1 1   C  1S         -0.00369  -0.01068   0.01157   0.00966   0.02213
   2        2S          0.22630  -0.73905  -1.13705  -0.52637   0.47910
   3        2PX        -0.21797   0.01422  -0.01067   0.07017  -0.02731
   4        2PY         0.13813   0.07584  -0.37161  -0.35531   0.11667
   5        2PZ        -0.73543   0.17379  -0.35568   0.00143  -0.05689
   6        3S          0.05794   1.94631   2.57540   1.17683  -2.52660
   7        3PX         0.58849   0.06798   0.21467  -0.44980  -0.31533
   8        3PY        -0.79363  -0.39059   0.42845   0.82424   1.36000
   9        3PZ         1.82254   0.14689   1.16100  -0.84485  -0.59196
  10        4XX        -0.00213   0.01257  -0.09026  -0.06519  -0.04932
  11        4YY         0.09259  -0.00806  -0.06057  -0.02724   0.01935
  12        4ZZ        -0.03096  -0.09331   0.01842   0.03089   0.00416
  13        4XY         0.01634  -0.01544   0.00766  -0.02075   0.07393
  14        4XZ        -0.02700  -0.00410   0.01794   0.01257  -0.03014
  15        4YZ         0.06840  -0.13187   0.03911   0.14158   0.15284
  16 2   N  1S          0.00886   0.02849  -0.01027  -0.00528  -0.03747
  17        2S          0.21956  -0.33666  -0.20247   0.02620  -1.24141
  18        2PX        -0.15276  -0.29345   0.14995  -0.27065   0.08415
  19        2PY         0.25341   0.34869   0.12840  -0.08800  -0.35865
  20        2PZ        -0.12685  -0.35202   0.32779  -0.61467   0.07781
  21        3S         -0.97506   0.22488   0.03155   0.46481   3.34314
  22        3PX         0.22417   0.53025  -0.19713   0.53266  -0.51448
  23        3PY        -0.73739  -1.03730  -0.65332   0.49219   1.95104
  24        3PZ         0.07045   0.61809  -0.57451   1.27460  -0.63230
  25        4XX         0.07659  -0.03767   0.02821  -0.05512  -0.17721
  26        4YY        -0.02768  -0.04458  -0.13395   0.01347  -0.38167
  27        4ZZ         0.05037  -0.06055  -0.05965   0.07300  -0.03623
  28        4XY        -0.04957  -0.04678   0.01642   0.04917  -0.02407
  29        4XZ         0.01648   0.03003  -0.04637   0.04833   0.14417
  30        4YZ        -0.10372  -0.03293  -0.01670   0.01386  -0.01694
  31 3   H  1S          0.23239  -0.49439   0.57829   0.61216   0.15570
  32        2S         -0.91038   0.13565  -1.80075  -0.86719   0.02040
  33 4   H  1S         -0.49020   0.30389   0.50234  -0.35207  -0.00854
  34        2S          1.74725  -0.63310  -0.49075  -0.62502  -0.10066
  35 5   H  1S         -0.45108  -0.05152  -0.21968   0.33784   0.21723
  36        2S          0.58530   0.04645  -0.30090   0.39005  -0.10294
  37 6   H  1S          0.40647   0.65131  -0.10982  -0.05208   0.50200
  38        2S         -0.70910  -1.44254   0.17571  -0.56384  -0.10616
                          26        27        28        29        30
                           V         V         V         V         V
     Eigenvalues --     0.87297   1.13275   1.30707   1.44718   1.46297
   1 1   C  1S          0.01113   0.00136   0.00139   0.00861  -0.00405
   2        2S          0.61283   0.08349   0.08421   0.08532  -0.08511
   3        2PX         0.06743   0.11087   0.01590  -0.03341  -0.03592
   4        2PY        -0.21253  -0.08242  -0.04117   0.01091   0.02260
   5        2PZ         0.18400   0.01760   0.02943  -0.05684  -0.07168
   6        3S         -0.65512  -0.00031  -0.04277  -0.86227  -0.18118
   7        3PX        -0.19524  -0.11057  -0.02196  -0.19318  -0.09140
   8        3PY         0.13913   0.11099  -0.03946   0.82234   0.64704
   9        3PZ        -0.50720  -0.27463  -0.08517  -0.50993  -0.11176
  10        4XX         0.01073  -0.25600   0.20644  -0.08155  -0.08273
  11        4YY         0.07739   0.06641   0.07320  -0.44868  -0.21990
  12        4ZZ        -0.00889   0.20204  -0.27397   0.50025   0.27029
  13        4XY        -0.10416   0.51729   0.33332  -0.28614  -0.00458
  14        4XZ        -0.00604  -0.15365   0.68596  -0.08156   0.59756
  15        4YZ         0.03729  -0.21024   0.05585  -0.24079  -0.09561
  16 2   N  1S         -0.05334  -0.01133  -0.00539  -0.01254  -0.01052
  17        2S         -0.90388  -0.08305  -0.03938  -0.26966  -0.26651
  18        2PX        -0.13372  -0.01706  -0.01513   0.02707   0.03348
  19        2PY         0.40703   0.08126   0.06038  -0.05999  -0.02827
  20        2PZ        -0.11676  -0.08192  -0.01814   0.01005   0.04079
  21        3S          2.50010   0.39746   0.15811   0.98039   0.75542
  22        3PX         0.50802   0.22469   0.08190  -0.37734  -0.28328
  23        3PY        -1.37199  -0.21754  -0.22128   0.84865   0.40863
  24        3PZ         0.58001   0.22569   0.09491  -0.45934  -0.42246
  25        4XX        -0.09382   0.23937   0.29616   0.31121  -0.52696
  26        4YY        -0.17669  -0.09831   0.00386   0.25292   0.22228
  27        4ZZ        -0.23734  -0.18842  -0.31927  -0.62038   0.24177
  28        4XY         0.06408  -0.51445   0.19386   0.27857  -0.16601
  29        4XZ        -0.22642   0.03103   0.36335   0.11346  -0.36566
  30        4YZ        -0.10886   0.27716  -0.00240   0.21157   0.32923
  31 3   H  1S          0.02246   0.06753   0.02382   0.12936  -0.03588
  32        2S          0.44003   0.06484   0.09141   0.04693  -0.19439
  33 4   H  1S         -0.07503  -0.09887  -0.00252  -0.34123  -0.32033
  34        2S         -0.09257  -0.12003  -0.02093  -0.15719  -0.07073
  35 5   H  1S         -0.53386  -0.05559  -0.07125  -0.14615  -0.26591
  36        2S         -0.20222   0.00518  -0.02777   0.07758   0.02547
  37 6   H  1S         -0.63855  -0.18982  -0.10711   0.40402   0.26574
  38        2S         -0.93584  -0.18589  -0.09885   0.14961   0.08407
                          31        32        33        34        35
                           V         V         V         V         V
     Eigenvalues --     1.56927   1.64787   1.86476   1.88458   2.09487
   1 1   C  1S         -0.00322   0.02343  -0.04583  -0.02466   0.01459
   2        2S         -0.43343   0.10209  -0.14707  -0.03832   0.12607
   3        2PX        -0.06004  -0.01545   0.01605   0.03613  -0.02090
   4        2PY         0.25730   0.06469   0.00062  -0.03805   0.03547
   5        2PZ        -0.10957  -0.00316   0.09972   0.06193   0.01536
   6        3S          0.46432  -1.10060   1.02127   0.68053  -0.59378
   7        3PX         0.01384  -0.15590   0.04840   0.31685  -0.08683
   8        3PY        -0.24181   0.38214  -0.04234  -0.24000   0.13932
   9        3PZ         0.03078  -0.61627   0.64710   0.28112  -0.16111
  10        4XX        -0.52430   0.37283  -0.72654  -0.04116   0.01645
  11        4YY         0.65408  -0.17856  -0.00791   0.00144   0.17365
  12        4ZZ        -0.18944  -0.17190   0.68873   0.01721  -0.15942
  13        4XY        -0.16996   0.03704   0.20216  -0.63051   0.32155
  14        4XZ         0.09416   0.11302   0.18494   0.20656  -0.26244
  15        4YZ        -0.07231  -0.02511   0.34807   0.54568   0.73088
  16 2   N  1S          0.01857   0.01047   0.00588   0.00268  -0.00532
  17        2S         -0.22793   0.12573   0.33727   0.18768   0.03773
  18        2PX         0.05867   0.01135  -0.03346   0.02930  -0.03222
  19        2PY        -0.30447  -0.16439   0.07030   0.07102   0.05210
  20        2PZ         0.06524  -0.04439   0.00150  -0.01706  -0.04550
  21        3S         -0.04491  -0.00041  -0.80956  -0.53567   0.09671
  22        3PX         0.02160  -0.30029   0.16084  -0.11700  -0.09022
  23        3PY         0.30371   1.29730  -0.33645  -0.53606   0.51238
  24        3PZ         0.09646  -0.13494  -0.05628   0.22502  -0.08715
  25        4XX        -0.08096   0.49274   0.19406   0.34252  -0.11176
  26        4YY         0.48266  -0.13290  -0.29014  -0.24503   0.48227
  27        4ZZ        -0.43060  -0.28625   0.10776  -0.10843  -0.35338
  28        4XY        -0.15076  -0.17187   0.25445  -0.57684   0.28542
  29        4XZ        -0.06776  -0.71983  -0.14099   0.18475  -0.31602
  30        4YZ        -0.23250  -0.26186  -0.37833   0.27102   0.52875
  31 3   H  1S          0.03783   0.26459  -0.80005  -0.39696  -0.25677
  32        2S         -0.16477   0.25383  -0.15361  -0.02186   0.24969
  33 4   H  1S         -0.17598  -0.00168  -0.01998   0.10670   0.39120
  34        2S          0.06570  -0.16777   0.05874   0.03342  -0.19075
  35 5   H  1S          0.12183   0.57405   0.21950   0.01107  -0.18851
  36        2S         -0.00248   0.09827  -0.07824  -0.06326   0.24142
  37 6   H  1S         -0.15777   0.45365   0.03439  -0.13092   0.51622
  38        2S          0.11124   0.31693   0.02155  -0.05228  -0.07082
                          36        37        38
                           V         V         V
     Eigenvalues --     2.38887   3.30844   3.81312
   1 1   C  1S          0.09396  -0.13632  -0.43223
   2        2S         -0.21012   0.98351   2.92473
   3        2PX        -0.06885   0.02377  -0.02918
   4        2PY         0.40256  -0.11951   0.10261
   5        2PZ        -0.06592   0.01934  -0.07798
   6        3S         -1.65234  -0.29440   1.51358
   7        3PX        -0.30808  -0.14993  -0.01407
   8        3PY         1.09822   0.53242   0.15305
   9        3PZ        -0.59613  -0.25270   0.09602
  10        4XX         0.53067  -0.52697  -1.69451
  11        4YY        -0.65325  -0.38382  -1.93409
  12        4ZZ         0.45876  -0.55636  -1.72290
  13        4XY         0.28281  -0.04920   0.06510
  14        4XZ        -0.09287   0.01962  -0.02573
  15        4YZ         0.44689  -0.13144   0.09641
  16 2   N  1S         -0.10858  -0.43704   0.13258
  17        2S         -0.36117   1.10916  -0.40081
  18        2PX        -0.00118  -0.00120  -0.01418
  19        2PY         0.06955  -0.01860   0.07121
  20        2PZ        -0.00974   0.00690  -0.03297
  21        3S          2.28477   2.92417  -0.98554
  22        3PX        -0.26895  -0.05859  -0.03668
  23        3PY         1.16253   0.21989   0.17532
  24        3PZ        -0.36635  -0.11722  -0.01899
  25        4XX        -0.57381  -1.44747   0.39635
  26        4YY         0.57642  -1.35221   0.72540
  27        4ZZ        -0.43773  -1.43771   0.43197
  28        4XY        -0.46835   0.01660  -0.12017
  29        4XZ         0.24975  -0.01307   0.04469
  30        4YZ        -0.65270   0.03968  -0.17723
  31 3   H  1S         -0.07912   0.16664   0.14651
  32        2S          0.20300  -0.15704  -0.48051
  33 4   H  1S          0.10346  -0.02171   0.13923
  34        2S         -0.33534  -0.20432  -0.35105
  35 5   H  1S          0.02934   0.04921   0.03583
  36        2S         -0.04026  -0.29474   0.09421
  37 6   H  1S         -0.42562   0.21544  -0.12254
  38        2S          0.27969  -0.41170   0.26419
     Density Matrix:
                           1         2         3         4         5
   1 1   C  1S          2.05113
   2        2S         -0.07771   0.37282
   3        2PX         0.00397  -0.00633   0.23323
   4        2PY        -0.03034   0.05858  -0.01849   0.34772
   5        2PZ         0.00319  -0.00606   0.06798   0.05409   0.48863
   6        3S         -0.15948   0.30295  -0.02511   0.12000  -0.04919
   7        3PX         0.00582  -0.01185   0.13149   0.00769   0.02746
   8        3PY        -0.02810   0.05774   0.00686   0.10422   0.01509
   9        3PZ         0.01066  -0.02687   0.01753   0.03493   0.20806
  10        4XX        -0.01139  -0.01593   0.00377  -0.00184  -0.00548
  11        4YY        -0.01930   0.00296   0.00056  -0.01453   0.00016
  12        4ZZ        -0.02046   0.00446  -0.00422   0.01367   0.00763
  13        4XY         0.00254  -0.00605  -0.00920   0.00391   0.00776
  14        4XZ        -0.00299   0.00685   0.00243   0.00173  -0.00442
  15        4YZ         0.00147  -0.00364   0.01008   0.01771   0.02516
  16 2   N  1S          0.01119  -0.02369  -0.00766   0.06871  -0.00746
  17        2S         -0.02269   0.04710   0.01743  -0.16003   0.01694
  18        2PX         0.00877  -0.01786   0.28830   0.10206  -0.07840
  19        2PY        -0.05606   0.12676   0.08531  -0.25882   0.03579
  20        2PZ         0.02255  -0.04930  -0.14910   0.06244   0.03297
  21        3S         -0.01207   0.03267   0.00402  -0.18192  -0.01908
  22        3PX         0.00307  -0.00535   0.20620   0.06044  -0.04974
  23        3PY        -0.03032   0.06838   0.04724  -0.14123  -0.00229
  24        3PZ         0.01087  -0.02321  -0.10810   0.02137   0.01439
  25        4XX         0.00098  -0.00259  -0.00160   0.00196  -0.00183
  26        4YY        -0.00448   0.00607   0.00266   0.00564   0.00999
  27        4ZZ         0.00064  -0.00235  -0.00092   0.00121  -0.00580
  28        4XY         0.00128  -0.00187   0.00367   0.00034   0.00059
  29        4XZ        -0.00010  -0.00019  -0.00353  -0.00072  -0.00251
  30        4YZ         0.00247  -0.00425   0.00003   0.00625   0.00978
  31 3   H  1S         -0.06031   0.12752   0.03756   0.16290   0.24507
  32        2S         -0.00184   0.01375   0.02939   0.08559   0.14780
  33 4   H  1S         -0.06634   0.14082  -0.08102   0.07728  -0.22191
  34        2S         -0.01377   0.03563  -0.05477   0.02047  -0.14497
  35 5   H  1S          0.00686  -0.01844  -0.00561   0.05430   0.02191
  36        2S          0.00245  -0.00644   0.00589   0.05423   0.03850
  37 6   H  1S          0.01542  -0.03570  -0.00757   0.07322  -0.02739
  38        2S          0.00098  -0.00439  -0.00771   0.03237  -0.02532
                           6         7         8         9        10
   6        3S          0.27324
   7        3PX        -0.01509   0.07617
   8        3PY         0.06678   0.00823   0.03714
   9        3PZ        -0.03665   0.00709   0.00677   0.09220
  10        4XX        -0.01162   0.00268  -0.00201  -0.00157   0.00096
  11        4YY        -0.00023  -0.00054  -0.00342  -0.00049  -0.00011
  12        4ZZ         0.00669  -0.00215   0.00407   0.00339  -0.00015
  13        4XY        -0.00430  -0.00502  -0.00015   0.00450  -0.00004
  14        4XZ         0.00610   0.00131   0.00138  -0.00261  -0.00014
  15        4YZ        -0.00176   0.00659   0.00516   0.01183   0.00000
  16 2   N  1S          0.00348   0.00230   0.01113   0.00174   0.00151
  17        2S         -0.01524  -0.00559  -0.02658  -0.00446  -0.00300
  18        2PX         0.00363   0.17146   0.04360  -0.04812   0.00894
  19        2PY         0.03843   0.02510  -0.06435  -0.01665  -0.00436
  20        2PZ        -0.02981  -0.09238  -0.00135   0.00972   0.00108
  21        3S         -0.02790  -0.01307  -0.03410  -0.01871  -0.00233
  22        3PX         0.00567   0.12221   0.02839  -0.03162   0.00579
  23        3PY         0.02274   0.01405  -0.03596  -0.01983  -0.00181
  24        3PZ        -0.01487  -0.06724  -0.00625   0.00304   0.00005
  25        4XX        -0.00106  -0.00075  -0.00025  -0.00072   0.00016
  26        4YY         0.00439   0.00148   0.00319   0.00439  -0.00039
  27        4ZZ        -0.00086  -0.00022   0.00002  -0.00226   0.00018
  28        4XY        -0.00118   0.00249  -0.00008   0.00062   0.00010
  29        4XZ        -0.00034  -0.00219  -0.00009  -0.00108  -0.00002
  30        4YZ        -0.00257   0.00085   0.00141   0.00572  -0.00006
  31 3   H  1S          0.10907   0.02062   0.06146   0.10149  -0.00753
  32        2S          0.01297   0.01802   0.02702   0.06571  -0.00197
  33 4   H  1S          0.15540  -0.04019   0.03455  -0.09889  -0.00359
  34        2S          0.05011  -0.02765   0.00744  -0.06215  -0.00016
  35 5   H  1S         -0.00586   0.00489   0.02104   0.02339  -0.00077
  36        2S          0.00408   0.00986   0.01830   0.02626  -0.00085
  37 6   H  1S         -0.01674  -0.00319   0.02090  -0.01200   0.00274
  38        2S          0.00514  -0.00408   0.00764  -0.01286   0.00108
                          11        12        13        14        15
  11        4YY         0.00109
  12        4ZZ        -0.00046   0.00098
  13        4XY        -0.00016   0.00033   0.00075
  14        4XZ        -0.00008   0.00008  -0.00035   0.00026
  15        4YZ        -0.00051   0.00055   0.00039  -0.00026   0.00270
  16 2   N  1S         -0.00439   0.00232   0.00179  -0.00041   0.00413
  17        2S          0.01063  -0.00514  -0.00421   0.00094  -0.00998
  18        2PX        -0.00899  -0.00085  -0.01496   0.00696   0.00698
  19        2PY         0.00938  -0.00620  -0.00817   0.00334  -0.01419
  20        2PZ        -0.01128   0.01180   0.00550   0.00128  -0.01288
  21        3S          0.01146  -0.00647  -0.00430   0.00074  -0.01264
  22        3PX        -0.00521  -0.00133  -0.01054   0.00467   0.00545
  23        3PY         0.00420  -0.00317  -0.00515   0.00240  -0.00956
  24        3PZ        -0.00609   0.00694   0.00379   0.00063  -0.00955
  25        4XX        -0.00035   0.00016   0.00008   0.00001  -0.00014
  26        4YY         0.00026   0.00018   0.00004  -0.00002   0.00088
  27        4ZZ        -0.00016  -0.00002  -0.00003   0.00003  -0.00021
  28        4XY         0.00006  -0.00021  -0.00001  -0.00010   0.00053
  29        4XZ         0.00002   0.00007   0.00003   0.00003  -0.00044
  30        4YZ         0.00011  -0.00005   0.00053  -0.00040   0.00149
  31 3   H  1S         -0.00340   0.00925   0.00270   0.00055   0.01793
  32        2S         -0.00230   0.00413   0.00249  -0.00093   0.01197
  33 4   H  1S         -0.00268   0.00266  -0.00310   0.00449  -0.01125
  34        2S         -0.00161   0.00039  -0.00126   0.00187  -0.00830
  35 5   H  1S          0.00296  -0.00167   0.00282  -0.00263   0.00997
  36        2S          0.00122  -0.00048   0.00234  -0.00195   0.00954
  37 6   H  1S         -0.00591   0.00437  -0.00088   0.00182  -0.00304
  38        2S         -0.00353   0.00243  -0.00065   0.00129  -0.00272
                          16        17        18        19        20
  16 2   N  1S          2.05704
  17        2S         -0.11968   0.41258
  18        2PX        -0.00046   0.00135   0.54867
  19        2PY        -0.00006   0.00976   0.00993   0.44936
  20        2PZ        -0.01235   0.03400  -0.01747   0.02241   0.55469
  21        3S         -0.18978   0.43275  -0.01094   0.00028   0.03240
  22        3PX         0.00156  -0.00378   0.37061   0.01700  -0.04546
  23        3PY         0.00477  -0.00414   0.02673   0.25978   0.04133
  24        3PZ        -0.00585   0.01819  -0.04223   0.03146   0.34351
  25        4XX        -0.01169  -0.00972   0.00088   0.00295   0.00681
  26        4YY        -0.02290   0.01393   0.00026  -0.01152  -0.00805
  27        4ZZ        -0.01499  -0.00266   0.00229  -0.00234   0.00168
  28        4XY         0.00396  -0.00875   0.00032   0.00026  -0.01279
  29        4XZ        -0.00442   0.00969  -0.00103  -0.00400   0.00775
  30        4YZ         0.00405  -0.00927  -0.01021  -0.01223  -0.02075
  31 3   H  1S          0.01386  -0.03508   0.00430  -0.03896  -0.00952
  32        2S          0.01184  -0.02857   0.00636  -0.04842  -0.01853
  33 4   H  1S          0.01016  -0.02553   0.00826  -0.04001   0.03823
  34        2S          0.00481  -0.01128  -0.00032  -0.02548   0.04252
  35 5   H  1S         -0.02994   0.05940  -0.06218  -0.19336  -0.19740
  36        2S          0.00554  -0.01835  -0.04474  -0.11493  -0.15726
  37 6   H  1S         -0.05772   0.12782   0.12569  -0.10766   0.20714
  38        2S         -0.00268   0.00485   0.05544  -0.00654   0.10972
                          21        22        23        24        25
  21        3S          0.46036
  22        3PX        -0.01273   0.25274
  23        3PY        -0.00909   0.02208   0.15378
  24        3PZ         0.01826  -0.04892   0.03506   0.21559
  25        4XX        -0.00963   0.00029   0.00245   0.00438   0.00048
  26        4YY         0.01426   0.00038  -0.00796  -0.00581  -0.00048
  27        4ZZ        -0.00182   0.00134  -0.00087   0.00095   0.00022
  28        4XY        -0.00918   0.00107  -0.00035  -0.00787   0.00004
  29        4XZ         0.01051  -0.00137  -0.00206   0.00468  -0.00014
  30        4YZ        -0.00991  -0.00577  -0.00878  -0.01289  -0.00019
  31 3   H  1S         -0.06410   0.00533  -0.03320  -0.01329  -0.00135
  32        2S         -0.04328   0.00582  -0.03473  -0.01731  -0.00069
  33 4   H  1S         -0.01691   0.00077  -0.01042   0.02752   0.00101
  34        2S         -0.00229  -0.00460  -0.00567   0.02900   0.00106
  35 5   H  1S          0.06617  -0.03486  -0.12773  -0.12725  -0.00562
  36        2S         -0.01947  -0.02286  -0.07815  -0.10007  -0.00277
  37 6   H  1S          0.13398   0.06805  -0.04858   0.11542  -0.00063
  38        2S          0.00463   0.03020   0.00526   0.06469   0.00148
                          26        27        28        29        30
  26        4YY         0.00151
  27        4ZZ        -0.00007   0.00023
  28        4XY        -0.00015  -0.00001   0.00047
  29        4XZ         0.00028   0.00003  -0.00038   0.00038
  30        4YZ         0.00049  -0.00012   0.00066  -0.00042   0.00167
  31 3   H  1S          0.00904  -0.00305   0.00057  -0.00193   0.00660
  32        2S          0.00481  -0.00150   0.00113  -0.00136   0.00555
  33 4   H  1S         -0.00208   0.00235  -0.00222   0.00197  -0.00592
  34        2S         -0.00277   0.00179  -0.00155   0.00156  -0.00420
  35 5   H  1S          0.01125  -0.00072   0.00284   0.00060   0.01267
  36        2S          0.00614  -0.00066   0.00366  -0.00155   0.01072
  37 6   H  1S          0.00410   0.00136  -0.00739   0.00662  -0.01002
  38        2S         -0.00163   0.00088  -0.00267   0.00168  -0.00550
                          31        32        33        34        35
  31 3   H  1S          0.21090
  32        2S          0.10512   0.06185
  33 4   H  1S         -0.03892  -0.04995   0.18132
  34        2S         -0.05354  -0.04025   0.09378   0.05552
  35 5   H  1S          0.03507   0.03317  -0.01593  -0.01662   0.17114
  36        2S          0.04394   0.03413  -0.01882  -0.01908   0.10921
  37 6   H  1S         -0.00690  -0.00482   0.03056   0.02529  -0.02103
  38        2S         -0.00728  -0.00786   0.02514   0.01760  -0.04325
                          36        37        38
  36        2S          0.08067
  37 6   H  1S         -0.04548   0.17470
  38        2S         -0.03550   0.05883   0.02977
    Full Mulliken population analysis:
                           1         2         3         4         5
   1 1   C  1S          2.05113
   2        2S         -0.01702   0.37282
   3        2PX         0.00000   0.00000   0.23323
   4        2PY         0.00000   0.00000   0.00000   0.34772
   5        2PZ         0.00000   0.00000   0.00000   0.00000   0.48863
   6        3S         -0.02939   0.24608   0.00000   0.00000   0.00000
   7        3PX         0.00000   0.00000   0.07492   0.00000   0.00000
   8        3PY         0.00000   0.00000   0.00000   0.05938   0.00000
   9        3PZ         0.00000   0.00000   0.00000   0.00000   0.11854
  10        4XX        -0.00090  -0.01132   0.00000   0.00000   0.00000
  11        4YY        -0.00153   0.00211   0.00000   0.00000   0.00000
  12        4ZZ        -0.00162   0.00317   0.00000   0.00000   0.00000
  13        4XY         0.00000   0.00000   0.00000   0.00000   0.00000
  14        4XZ         0.00000   0.00000   0.00000   0.00000   0.00000
  15        4YZ         0.00000   0.00000   0.00000   0.00000   0.00000
  16 2   N  1S          0.00000  -0.00014  -0.00003  -0.00095  -0.00004
  17        2S         -0.00006   0.00408   0.00057   0.02191   0.00081
  18        2PX        -0.00001   0.00051   0.00905   0.00497   0.00134
  19        2PY        -0.00035   0.01502   0.00415   0.04170   0.00256
  20        2PZ        -0.00005   0.00205   0.00255   0.00447   0.00059
  21        3S         -0.00049   0.00839   0.00021   0.04009  -0.00148
  22        3PX        -0.00007   0.00056   0.03267   0.00572   0.00165
  23        3PY        -0.00286   0.03015   0.00447   0.03044  -0.00032
  24        3PZ        -0.00036   0.00359   0.00359   0.00297   0.00190
  25        4XX         0.00000  -0.00016   0.00001  -0.00019  -0.00006
  26        4YY        -0.00008   0.00124   0.00023  -0.00140   0.00128
  27        4ZZ         0.00000  -0.00017  -0.00003  -0.00014   0.00000
  28        4XY        -0.00001   0.00012   0.00027   0.00003  -0.00002
  29        4XZ         0.00000   0.00000   0.00009   0.00003   0.00003
  30        4YZ        -0.00003   0.00039   0.00000   0.00085   0.00041
  31 3   H  1S         -0.00215   0.03649   0.00101   0.03481   0.07724
  32        2S         -0.00017   0.00667   0.00055   0.01275   0.03246
  33 4   H  1S         -0.00119   0.02802   0.00683   0.01347   0.04749
  34        2S         -0.00107   0.01488   0.00415   0.00321   0.02789
  35 5   H  1S          0.00000  -0.00003   0.00000  -0.00024  -0.00001
  36        2S          0.00002  -0.00038   0.00002  -0.00373  -0.00018
  37 6   H  1S          0.00000  -0.00004  -0.00001  -0.00018  -0.00004
  38        2S          0.00001  -0.00022  -0.00015  -0.00161  -0.00069
                           6         7         8         9        10
   6        3S          0.27324
   7        3PX         0.00000   0.07617
   8        3PY         0.00000   0.00000   0.03714
   9        3PZ         0.00000   0.00000   0.00000   0.09220
  10        4XX        -0.00732   0.00000   0.00000   0.00000   0.00096
  11        4YY        -0.00014   0.00000   0.00000   0.00000  -0.00004
  12        4ZZ         0.00421   0.00000   0.00000   0.00000  -0.00005
  13        4XY         0.00000   0.00000   0.00000   0.00000   0.00000
  14        4XZ         0.00000   0.00000   0.00000   0.00000   0.00000
  15        4YZ         0.00000   0.00000   0.00000   0.00000   0.00000
  16 2   N  1S          0.00013   0.00004  -0.00089   0.00005   0.00000
  17        2S         -0.00347  -0.00053   0.01065  -0.00063  -0.00010
  18        2PX        -0.00013   0.02064   0.00277   0.00107   0.00006
  19        2PY         0.00566   0.00159   0.00842  -0.00156  -0.00024
  20        2PZ         0.00154   0.00206  -0.00013   0.00100  -0.00002
  21        3S         -0.01273  -0.00172   0.01882  -0.00362  -0.00041
  22        3PX        -0.00067   0.05125   0.00403   0.00158  -0.00023
  23        3PY         0.01120   0.00200   0.00511  -0.00414  -0.00061
  24        3PZ         0.00257   0.00335  -0.00131   0.00116  -0.00001
  25        4XX        -0.00022  -0.00004   0.00009  -0.00009   0.00000
  26        4YY         0.00124   0.00018  -0.00113   0.00078  -0.00004
  27        4ZZ        -0.00018  -0.00002  -0.00001  -0.00018   0.00001
  28        4XY         0.00004   0.00029   0.00000  -0.00001   0.00000
  29        4XZ         0.00000   0.00009   0.00000   0.00003   0.00000
  30        4YZ         0.00013  -0.00002   0.00006   0.00057   0.00000
  31 3   H  1S          0.04198   0.00075   0.01776   0.04326  -0.00095
  32        2S          0.00925   0.00074   0.00876   0.03143  -0.00071
  33 4   H  1S          0.05060   0.00584   0.01039   0.03650  -0.00037
  34        2S          0.03230   0.00482   0.00268   0.02751  -0.00005
  35 5   H  1S         -0.00022   0.00003  -0.00240  -0.00018   0.00000
  36        2S          0.00071   0.00015  -0.00586  -0.00058  -0.00003
  37 6   H  1S         -0.00052  -0.00010  -0.00169  -0.00053   0.00000
  38        2S          0.00080  -0.00039  -0.00187  -0.00173   0.00004
                          11        12        13        14        15
  11        4YY         0.00109
  12        4ZZ        -0.00015   0.00098
  13        4XY         0.00000   0.00000   0.00075
  14        4XZ         0.00000   0.00000   0.00000   0.00026
  15        4YZ         0.00000   0.00000   0.00000   0.00000   0.00270
  16 2   N  1S         -0.00005   0.00000  -0.00001   0.00000  -0.00003
  17        2S          0.00169  -0.00022   0.00023   0.00002   0.00080
  18        2PX         0.00060   0.00001   0.00073   0.00012   0.00024
  19        2PY         0.00183  -0.00044   0.00066   0.00011   0.00169
  20        2PZ         0.00110   0.00005   0.00019   0.00001   0.00028
  21        3S          0.00312  -0.00117   0.00019   0.00001   0.00080
  22        3PX         0.00065   0.00011   0.00136   0.00021   0.00016
  23        3PY         0.00148  -0.00110   0.00025   0.00007   0.00067
  24        3PZ         0.00112  -0.00043   0.00011   0.00002   0.00101
  25        4XX        -0.00004   0.00000   0.00000   0.00000   0.00001
  26        4YY         0.00007   0.00002   0.00000   0.00000  -0.00017
  27        4ZZ        -0.00002   0.00000   0.00000   0.00000   0.00000
  28        4XY        -0.00001   0.00001   0.00000   0.00000   0.00004
  29        4XZ         0.00000   0.00000   0.00000   0.00000  -0.00001
  30        4YZ        -0.00002   0.00000   0.00004  -0.00001  -0.00008
  31 3   H  1S         -0.00079   0.00334   0.00006   0.00002   0.00498
  32        2S         -0.00088   0.00170   0.00001  -0.00001   0.00076
  33 4   H  1S         -0.00048   0.00062   0.00026   0.00046   0.00241
  34        2S         -0.00054   0.00014   0.00003   0.00006   0.00056
  35 5   H  1S          0.00001   0.00000   0.00000   0.00000   0.00000
  36        2S          0.00009  -0.00002  -0.00001   0.00000   0.00005
  37 6   H  1S         -0.00001   0.00000   0.00000   0.00000   0.00000
  38        2S         -0.00019   0.00009   0.00001   0.00001   0.00007
                          16        17        18        19        20
  16 2   N  1S          2.05704
  17        2S         -0.02659   0.41258
  18        2PX         0.00000   0.00000   0.54867
  19        2PY         0.00000   0.00000   0.00000   0.44936
  20        2PZ         0.00000   0.00000   0.00000   0.00000   0.55469
  21        3S         -0.03262   0.33560   0.00000   0.00000   0.00000
  22        3PX         0.00000   0.00000   0.19245   0.00000   0.00000
  23        3PY         0.00000   0.00000   0.00000   0.13490   0.00000
  24        3PZ         0.00000   0.00000   0.00000   0.00000   0.17838
  25        4XX        -0.00059  -0.00618   0.00000   0.00000   0.00000
  26        4YY        -0.00115   0.00886   0.00000   0.00000   0.00000
  27        4ZZ        -0.00076  -0.00169   0.00000   0.00000   0.00000
  28        4XY         0.00000   0.00000   0.00000   0.00000   0.00000
  29        4XZ         0.00000   0.00000   0.00000   0.00000   0.00000
  30        4YZ         0.00000   0.00000   0.00000   0.00000   0.00000
  31 3   H  1S          0.00000  -0.00017  -0.00001  -0.00037  -0.00002
  32        2S          0.00016  -0.00270  -0.00007  -0.00399  -0.00030
  33 4   H  1S          0.00000   0.00000   0.00000  -0.00001  -0.00001
  34        2S          0.00001  -0.00029   0.00000  -0.00059  -0.00064
  35 5   H  1S         -0.00036   0.00806   0.00213   0.03123   0.02035
  36        2S          0.00033  -0.00612   0.00147   0.01775   0.01550
  37 6   H  1S         -0.00161   0.02921   0.01665   0.02064   0.03768
  38        2S         -0.00020   0.00196   0.00483   0.00082   0.01313
                          21        22        23        24        25
  21        3S          0.46036
  22        3PX         0.00000   0.25274
  23        3PY         0.00000   0.00000   0.15378
  24        3PZ         0.00000   0.00000   0.00000   0.21559
  25        4XX        -0.00645   0.00000   0.00000   0.00000   0.00048
  26        4YY         0.00956   0.00000   0.00000   0.00000  -0.00016
  27        4ZZ        -0.00122   0.00000   0.00000   0.00000   0.00007
  28        4XY         0.00000   0.00000   0.00000   0.00000   0.00000
  29        4XZ         0.00000   0.00000   0.00000   0.00000   0.00000
  30        4YZ         0.00000   0.00000   0.00000   0.00000   0.00000
  31 3   H  1S         -0.00411  -0.00012  -0.00565  -0.00044   0.00000
  32        2S         -0.01075  -0.00028  -0.01297  -0.00127  -0.00006
  33 4   H  1S         -0.00022  -0.00001  -0.00038  -0.00066   0.00000
  34        2S         -0.00023   0.00024  -0.00091  -0.00305   0.00003
  35 5   H  1S          0.02000   0.00308   0.05321   0.03383  -0.00046
  36        2S         -0.01160   0.00224   0.03605   0.02946  -0.00083
  37 6   H  1S          0.05139   0.01667   0.01723   0.03884  -0.00012
  38        2S          0.00316   0.00737  -0.00186   0.02168   0.00056
                          26        27        28        29        30
  26        4YY         0.00151
  27        4ZZ        -0.00002   0.00023
  28        4XY         0.00000   0.00000   0.00047
  29        4XZ         0.00000   0.00000   0.00000   0.00038
  30        4YZ         0.00000   0.00000   0.00000   0.00000   0.00167
  31 3   H  1S          0.00020  -0.00001   0.00000   0.00000   0.00005
  32        2S          0.00070  -0.00013  -0.00002   0.00000   0.00012
  33 4   H  1S          0.00000   0.00000   0.00000   0.00000   0.00000
  34        2S         -0.00011   0.00005   0.00002   0.00001   0.00009
  35 5   H  1S          0.00289  -0.00011   0.00019   0.00003   0.00256
  36        2S          0.00219  -0.00021   0.00008  -0.00002   0.00072
  37 6   H  1S          0.00112   0.00035   0.00130   0.00111   0.00242
  38        2S         -0.00064   0.00034   0.00011   0.00006   0.00030
                          31        32        33        34        35
  31 3   H  1S          0.21090
  32        2S          0.06920   0.06185
  33 4   H  1S         -0.00054  -0.00667   0.18132
  34        2S         -0.00715  -0.01510   0.06173   0.05552
  35 5   H  1S          0.00000   0.00018   0.00000  -0.00007   0.17114
  36        2S          0.00024   0.00177  -0.00008  -0.00085   0.07189
  37 6   H  1S          0.00000  -0.00008   0.00000   0.00003  -0.00106
  38        2S         -0.00012  -0.00082   0.00003   0.00036  -0.00959
                          36        37        38
  36        2S          0.08067
  37 6   H  1S         -0.01009   0.17470
  38        2S         -0.01820   0.03873   0.02977
     Gross orbital populations:
                           1
   1 1   C  1S          1.99177
   2        2S          0.74685
   3        2PX         0.37837
   4        2PY         0.61610
   5        2PZ         0.80001
   6        3S          0.62668
   7        3PX         0.24209
   8        3PY         0.17079
   9        3PZ         0.34241
  10        4XX        -0.02230
  11        4YY         0.01007
  12        4ZZ         0.00927
  13        4XY         0.00487
  14        4XZ         0.00137
  15        4YZ         0.01694
  16 2   N  1S          1.99176
  17        2S          0.78828
  18        2PX         0.80810
  19        2PY         0.73058
  20        2PZ         0.83446
  21        3S          0.86290
  22        3PX         0.57338
  23        3PY         0.45022
  24        3PZ         0.53165
  25        4XX        -0.01441
  26        4YY         0.02718
  27        4ZZ        -0.00383
  28        4XY         0.00290
  29        4XZ         0.00182
  30        4YZ         0.01025
  31 3   H  1S          0.51971
  32        2S          0.18210
  33 4   H  1S          0.43536
  34        2S          0.20566
  35 5   H  1S          0.40610
  36        2S          0.20261
  37 6   H  1S          0.43201
  38        2S          0.08593
          Condensed to atoms (all electrons):
               1          2          3          4          5          6
     1  C    4.856886   0.421563   0.361152   0.317425  -0.012794  -0.008951
     2  N    0.421563   6.674352  -0.042189  -0.006658   0.263659   0.284506
     3  H    0.361152  -0.042189   0.411146  -0.029460   0.002190  -0.001029
     4  H    0.317425  -0.006658  -0.029460   0.360306  -0.001004   0.000415
     5  H   -0.012794   0.263659   0.002190  -0.001004   0.395599  -0.038936
     6  H   -0.008951   0.284506  -0.001029   0.000415  -0.038936   0.281932
 Mulliken charges:
               1
     1  C    0.064719
     2  N   -0.595232
     3  H    0.298189
     4  H    0.358975
     5  H    0.391286
     6  H    0.482063
 Sum of Mulliken charges =   1.00000
 Mulliken charges with hydrogens summed into heavy atoms:
               1
     1  C    0.721884
     2  N    0.278116
 Electronic spatial extent (au):  <R**2>=            635.2566
 Charge=              1.0000 electrons
 Dipole moment (field-independent basis, Debye):
    X=            -12.4350    Y=             -5.4806    Z=              6.0266  Tot=             14.8656
 Quadrupole moment (field-independent basis, Debye-Ang):
   XX=             20.4527   YY=              6.2829   ZZ=             -1.4800
   XY=             11.4064   XZ=            -13.6017   YZ=             -9.7576
 Traceless Quadrupole moment (field-independent basis, Debye-Ang):
   XX=             12.0342   YY=             -2.1356   ZZ=             -9.8986
   XY=             11.4064   XZ=            -13.6017   YZ=             -9.7576
 Octapole moment (field-independent basis, Debye-Ang**2):
  XXX=              8.3641  YYY=            -13.6818  ZZZ=            -26.7357  XYY=            -10.0315
  XXY=            -10.3736  XXZ=             14.8049  XZZ=              9.3141  YZZ=             -5.8967
  YYZ=             12.6188  XYZ=             18.8847
 Hexadecapole moment (field-independent basis, Debye-Ang**3):
 XXXX=           -276.5190 YYYY=              1.4192 ZZZZ=           -104.3610 XXXY=            -49.4555
 XXXZ=             52.4874 YYYX=             24.6520 YYYZ=            -22.3562 ZZZX=             79.8333
 ZZZY=             17.6551 XXYY=            -13.5272 XXZZ=            -63.3229 YYZZ=              5.3115
 XXYZ=            -16.4476 YYXZ=            -17.2644 ZZXY=              1.8598
 N-N= 3.371941361595D+01 E-N=-2.822091637720D+02  KE= 9.304707286524D+01
 Orbital energies and kinetic energies (alpha):
                                 1                 2
   1         O               -14.696078         21.966923
   2         O               -10.592486         15.892129
   3         O                -1.145586          1.866454
   4         O                -0.948812          1.485511
   5         O                -0.779384          1.368259
   6         O                -0.723511          1.162325
   7         O                -0.638116          1.305287
   8         O                -0.582038          1.476649
   9         V                -0.363222          1.553861
  10         V                -0.265327          1.782810
  11         V                -0.205403          1.257033
  12         V                -0.120659          1.247283
  13         V                -0.076072          1.009029
  14         V                -0.027707          1.676382
  15         V                 0.245673          1.769525
  16         V                 0.288457          2.011317
  17         V                 0.322086          1.706227
  18         V                 0.438838          1.847015
  19         V                 0.450028          2.476943
  20         V                 0.496544          2.538187
  21         V                 0.537942          2.322656
  22         V                 0.555358          2.480349
  23         V                 0.634618          2.454614
  24         V                 0.723331          2.458293
  25         V                 0.823247          2.269792
  26         V                 0.872965          2.242071
  27         V                 1.132751          2.577980
  28         V                 1.307068          2.729037
  29         V                 1.447176          2.916463
  30         V                 1.462971          2.936885
  31         V                 1.569273          3.314061
  32         V                 1.647874          3.143383
  33         V                 1.864761          3.478005
  34         V                 1.884577          3.430460
  35         V                 2.094869          3.777920
  36         V                 2.388868          4.377047
  37         V                 3.308443          9.479409
  38         V                 3.813119          9.788721
 Total kinetic energy from orbitals= 9.304707286524D+01

 Test job not archived.
 1\1\GINC-EAM\SP\RB3LYP\6-31G(d)\C1H4N1(1+)\DULIKAI\29-Apr-2014\0\\# b3
 lyp/6-31g* scf=(tight,maxcycle=10000) iop(9/40=20) nosymm pop=full\\[0
 ] [0]\\1,1\C,0,-2.7646746,-0.3035078,1.0767215\N,0,-2.4308579,-1.70264
 11,1.5676618\H,0,-2.6889804,0.2957416,1.9604705\H,0,-3.1210837,0.43379
 61,0.1717645\H,0,-2.6496033,-2.7327209,0.9102532\H,0,-1.9542788,-2.392
 6377,2.2222609\\Version=EM64L-G09RevD.01\HF=-94.8180804\RMSD=4.293e-09
 \Dipole=0.0007455,-0.140315,-0.1521521\Quadrupole=8.9471236,-1.5877928
 ,-7.3593308,8.480382,-10.1125219,-7.2545012\PG=C01 [X(C1H4N1)]\\@


      HUMANKIND PERIODICALLY GOES THROUGH A SPEEDUP OF ITS AFFAIRS, 
      THEREBY EXPERIENCING THE RACE BETWEEN THE RENEWABLE VITALITY
      OF THE LIVING, AND THE BECKONING VITIATION OF DECADENCE.
      IN THIS PERIODIC RACE, ANY PAUSE BECOMES A LUXURY.
      ONLY THEN CAN ONE REFLECT THAT ALL IS PERMITTED;
      ALL IS POSSIBLE.

                              -- THE APOCRYPHA OF MUAD'DIB
                                 CHILDREN OF DUNE, BY FRANK HERBERT
 Job cpu time:       0 days  0 hours  0 minutes  3.0 seconds.
 File lengths (MBytes):  RWF=      5 Int=      0 D2E=      0 Chk=      1 Scr=      1
 Normal termination of Gaussian 09 at Tue Apr 29 21:35:01 2014.
 Initial command:
 /opt/g09_D01_em64t/g09/l1.exe "/tmp/Gau-16981.inp" -scrdir="/tmp/"
 Entering Link 1 = /opt/g09_D01_em64t/g09/l1.exe PID=     16993.
  
 Copyright (c) 1988,1990,1992,1993,1995,1998,2003,2009,2013,
            Gaussian, Inc.  All Rights Reserved.
  
 This is part of the Gaussian(R) 09 program.  It is based on
 the Gaussian(R) 03 system (copyright 2003, Gaussian, Inc.),
 the Gaussian(R) 98 system (copyright 1998, Gaussian, Inc.),
 the Gaussian(R) 94 system (copyright 1995, Gaussian, Inc.),
 the Gaussian 92(TM) system (copyright 1992, Gaussian, Inc.),
 the Gaussian 90(TM) system (copyright 1990, Gaussian, Inc.),
 the Gaussian 88(TM) system (copyright 1988, Gaussian, Inc.),
 the Gaussian 86(TM) system (copyright 1986, Carnegie Mellon
 University), and the Gaussian 82(TM) system (copyright 1983,
 Carnegie Mellon University). Gaussian is a federally registered
 trademark of Gaussian, Inc.
  
 This software contains proprietary and confidential information,
 including trade secrets, belonging to Gaussian, Inc.
  
 This software is provided under written license and may be
 used, copied, transmitted, or stored only in accord with that
 written license.
  
 The following legend is applicable only to US Government
 contracts under FAR:
  
                    RESTRICTED RIGHTS LEGEND
  
 Use, reproduction and disclosure by the US Government is
 subject to restrictions as set forth in subparagraphs (a)
 and (c) of the Commercial Computer Software - Restricted
 Rights clause in FAR 52.227-19.
  
 Gaussian, Inc.
 340 Quinnipiac St., Bldg. 40, Wallingford CT 06492
  
  
 ---------------------------------------------------------------
 Warning -- This program may not be used in any manner that
 competes with the business of Gaussian, Inc. or will provide
 assistance to any competitor of Gaussian, Inc.  The licensee
 of this program is prohibited from giving any competitor of
 Gaussian, Inc. access to this program.  By using this program,
 the user acknowledges that Gaussian, Inc. is engaged in the
 business of creating and licensing software in the field of
 computational chemistry and represents and warrants to the
 licensee that it is not a competitor of Gaussian, Inc. and that
 it will not use this program in any manner prohibited above.
 ---------------------------------------------------------------
  

 Cite this work as:
 Gaussian 09, Revision D.01,
 M. J. Frisch, G. W. Trucks, H. B. Schlegel, G. E. Scuseria, 
 M. A. Robb, J. R. Cheeseman, G. Scalmani, V. Barone, B. Mennucci, 
 G. A. Petersson, H. Nakatsuji, M. Caricato, X. Li, H. P. Hratchian, 
 A. F. Izmaylov, J. Bloino, G. Zheng, J. L. Sonnenberg, M. Hada, 
 M. Ehara, K. Toyota, R. Fukuda, J. Hasegawa, M. Ishida, T. Nakajima, 
 Y. Honda, O. Kitao, H. Nakai, T. Vreven, J. A. Montgomery, Jr., 
 J. E. Peralta, F. Ogliaro, M. Bearpark, J. J. Heyd, E. Brothers, 
 K. N. Kudin, V. N. Staroverov, T. Keith, R. Kobayashi, J. Normand, 
 K. Raghavachari, A. Rendell, J. C. Burant, S. S. Iyengar, J. Tomasi, 
 M. Cossi, N. Rega, J. M. Millam, M. Klene, J. E. Knox, J. B. Cross, 
 V. Bakken, C. Adamo, J. Jaramillo, R. Gomperts, R. E. Stratmann, 
 O. Yazyev, A. J. Austin, R. Cammi, C. Pomelli, J. W. Ochterski, 
 R. L. Martin, K. Morokuma, V. G. Zakrzewski, G. A. Voth, 
 P. Salvador, J. J. Dannenberg, S. Dapprich, A. D. Daniels, 
 O. Farkas, J. B. Foresman, J. V. Ortiz, J. Cioslowski, 
 and D. J. Fox, Gaussian, Inc., Wallingford CT, 2013.
 
 ******************************************
 Gaussian 09:  EM64L-G09RevD.01 24-Apr-2013
                29-Apr-2014 
 ******************************************
 %chk=gaussian.chk
 %mem=1GB
 %nproc=2
 Will use up to    2 processors via shared memory.
 %nproclinda=1
 Will use up to    1 processors via Linda.
 ----------------------------------------------------------------------
 # force b3lyp/ChkBasis scf=(tight,maxcycle=10000) iop(9/40=20) nosymm 
 pop=full geom=AllCheck Guess=Read
 ----------------------------------------------------------------------
 1/10=7,29=7,30=1,38=1/1,3;
 2/12=2,15=1,40=1/2;
 3/5=7,6=2,11=2,14=-4,16=1,25=1,30=1,67=1,71=1,74=-5,116=-2/1,2,3;
 4/5=1/1;
 5/5=2,7=10000,32=2,38=6/2;
 6/7=3,28=1/1;
 7/29=1,30=1/1,2,3,16;
 1/10=7,30=1/3;
 99//99;
 Structure from the checkpoint file:  "gaussian.chk"
 -------
 [0] [0]
 -------
 Charge =  1 Multiplicity = 1
 Z-Matrix found in file.
 C,0,-2.7646746,-0.3035078,1.0767215
 N,0,-2.4308579,-1.7026411,1.5676618
 H,0,-2.6889804,0.2957416,1.9604705
 H,0,-3.1210837,0.4337961,0.1717645
 H,0,-2.6496033,-2.7327209,0.9102532
 H,0,-1.9542788,-2.3926377,2.2222609
 Recover connectivity data from disk.

 GradGradGradGradGradGradGradGradGradGradGradGradGradGradGradGradGradGrad
 Berny optimization.
 Initialization pass.
 Trust Radius=3.00D-01 FncErr=1.00D-07 GrdErr=1.00D-07
 Number of steps in this run=      2 maximum allowed number of steps=      2.
 GradGradGradGradGradGradGradGradGradGradGradGradGradGradGradGradGradGrad

                          Input orientation:                          
 ---------------------------------------------------------------------
 Center     Atomic      Atomic             Coordinates (Angstroms)
 Number     Number       Type             X           Y           Z
 ---------------------------------------------------------------------
      1          6           0       -2.764675   -0.303508    1.076722
      2          7           0       -2.430858   -1.702641    1.567662
      3          1           0       -2.688980    0.295742    1.960471
      4          1           0       -3.121084    0.433796    0.171765
      5          1           0       -2.649603   -2.732721    0.910253
      6          1           0       -1.954279   -2.392638    2.222261
 ---------------------------------------------------------------------
                    Distance matrix (angstroms):
                    1          2          3          4          5
     1  C    0.000000
     2  N    1.519878   0.000000
     3  H    1.070440   2.052915   0.000000
     4  H    1.220488   2.643729   1.845330   0.000000
     5  H    2.437628   1.241410   3.205634   3.285497   0.000000
     6  H    2.516638   1.063825   2.799233   3.681670   1.523318
                    6
     6  H    0.000000
 Symmetry turned off by external request.
 Stoichiometry    CH4N(1+)
 Framework group  C1[X(CH4N)]
 Deg. of freedom    12
 Full point group                 C1      NOp   1
 Rotational constants (GHZ):    182.6241229     20.7375901     18.7044716
 Basis read from chk: "gaussian.chk" (6D, 7F)
    38 basis functions,    72 primitive gaussians,    38 cartesian basis functions
     8 alpha electrons        8 beta electrons
       nuclear repulsion energy        33.7194136159 Hartrees.
 NAtoms=    6 NActive=    6 NUniq=    6 SFac= 1.00D+00 NAtFMM=   60 NAOKFM=F Big=F
 Integral buffers will be    131072 words long.
 Raffenetti 2 integral format.
 Two-electron integral symmetry is turned off.
 One-electron integrals computed using PRISM.
 NBasis=    38 RedAO= T EigKep=  1.27D-02  NBF=    38
 NBsUse=    38 1.00D-06 EigRej= -1.00D+00 NBFU=    38
 Initial guess from the checkpoint file:  "gaussian.chk"
 B after Tr=     0.000000    0.000000    0.000000
         Rot=    1.000000    0.000000    0.000000    0.000000 Ang=   0.00 deg.
 Keep R1 ints in memory in canonical form, NReq=101191747.
 Requested convergence on RMS density matrix=1.00D-08 within**** cycles.
 Requested convergence on MAX density matrix=1.00D-06.
 Requested convergence on             energy=1.00D-06.
 No special actions if energy rises.
 SCF Done:  E(RB3LYP) =  -94.8180803536     A.U. after    1 cycles
            NFock=  1  Conv=0.55D-09     -V/T= 2.0190

 **********************************************************************

            Population analysis using the SCF density.

 **********************************************************************

 Alpha  occ. eigenvalues --  -14.69608 -10.59249  -1.14559  -0.94881  -0.77938
 Alpha  occ. eigenvalues --   -0.72351  -0.63812  -0.58204
 Alpha virt. eigenvalues --   -0.36322  -0.26533  -0.20540  -0.12066  -0.07607
 Alpha virt. eigenvalues --   -0.02771   0.24567   0.28846   0.32209   0.43884
 Alpha virt. eigenvalues --    0.45003   0.49654   0.53794   0.55536   0.63462
 Alpha virt. eigenvalues --    0.72333   0.82325   0.87297   1.13275   1.30707
 Alpha virt. eigenvalues --    1.44718   1.46297   1.56927   1.64787   1.86476
 Alpha virt. eigenvalues --    1.88458   2.09487   2.38887   3.30844   3.81312
     Molecular Orbital Coefficients:
                           1         2         3         4         5
                           O         O         O         O         O
     Eigenvalues --   -14.69608 -10.59249  -1.14559  -0.94881  -0.77938
   1 1   C  1S          0.00001   0.99296  -0.08791  -0.17220  -0.04181
   2        2S          0.00004   0.04686   0.18697   0.37398   0.08462
   3        2PX         0.00006   0.00009   0.02385  -0.00363  -0.08306
   4        2PY        -0.00025  -0.00067  -0.08846   0.05073   0.37290
   5        2PZ         0.00008   0.00026   0.04547   0.04788  -0.09232
   6        3S         -0.00041  -0.00921   0.10721   0.30805   0.15975
   7        3PX        -0.00005  -0.00003  -0.00227  -0.01099  -0.02692
   8        3PY         0.00023  -0.00038   0.01094   0.04796   0.11472
   9        3PZ        -0.00008  -0.00077   0.00160  -0.00510  -0.02812
  10        4XX         0.00002  -0.00926  -0.00895  -0.01582  -0.00164
  11        4YY         0.00021  -0.00886   0.01073   0.00283  -0.01650
  12        4ZZ         0.00003  -0.00903  -0.00165   0.00603   0.01492
  13        4XY        -0.00006  -0.00010  -0.00568  -0.00439   0.00253
  14        4XZ         0.00002   0.00008   0.00326   0.00604   0.00394
  15        4YZ        -0.00008  -0.00007  -0.00657  -0.00069   0.00750
  16 2   N  1S          0.99284  -0.00013  -0.19469   0.05917   0.03073
  17        2S          0.03405   0.00000   0.42269  -0.13200  -0.07662
  18        2PX         0.00009   0.00003   0.00790  -0.07039   0.12428
  19        2PY        -0.00010  -0.00014   0.00249   0.24173  -0.32878
  20        2PZ        -0.00016   0.00006  -0.00604  -0.07511   0.17329
  21        3S          0.00381   0.00196   0.43620  -0.16076  -0.08418
  22        3PX        -0.00002   0.00009   0.00345  -0.03450   0.06499
  23        3PY         0.00001  -0.00018  -0.01224   0.13411  -0.17050
  24        3PZ         0.00006   0.00013  -0.00768  -0.03119   0.08869
  25        4XX        -0.00805  -0.00013  -0.01088   0.00180   0.00146
  26        4YY        -0.00807  -0.00076   0.01962  -0.00228   0.00643
  27        4ZZ        -0.00804  -0.00022  -0.00319  -0.00278   0.00310
  28        4XY         0.00001   0.00019  -0.00900   0.00264  -0.00467
  29        4XZ         0.00000  -0.00006   0.00953  -0.00599   0.00431
  30        4YZ         0.00002   0.00027  -0.00815  -0.00069  -0.00158
  31 3   H  1S          0.00001  -0.00025   0.04681   0.15168   0.10436
  32        2S         -0.00007   0.00244  -0.00221   0.02670   0.04203
  33 4   H  1S         -0.00001  -0.00029   0.02189   0.11382   0.17545
  34        2S         -0.00002   0.00145  -0.00557   0.01712   0.08167
  35 5   H  1S          0.00021  -0.00018   0.08361  -0.08051   0.04660
  36        2S         -0.00030   0.00007   0.00195  -0.01516   0.02342
  37 6   H  1S          0.00031  -0.00001   0.12202  -0.14222   0.16877
  38        2S         -0.00048  -0.00046   0.00056  -0.01997   0.06710
                           6         7         8         9        10
                           O         O         O         V         V
     Eigenvalues --    -0.72351  -0.63812  -0.58204  -0.36322  -0.26533
   1 1   C  1S          0.01860   0.00978  -0.00423   0.00553   0.11791
   2        2S         -0.03920  -0.02437   0.01012  -0.01366  -0.25554
   3        2PX         0.08966  -0.04477   0.31479   0.52774  -0.05207
   4        2PY         0.06321   0.12126   0.07555   0.11319   0.27071
   5        2PZ         0.36052   0.31768   0.02322  -0.13055   0.10434
   6        3S         -0.06308  -0.02209   0.01253  -0.02835  -0.85083
   7        3PX         0.03819  -0.01971   0.18812   0.46281  -0.05678
   8        3PY         0.01098   0.03273   0.04241   0.08994   0.33013
   9        3PZ         0.14225   0.15824   0.00223  -0.10127   0.12647
  10        4XX        -0.00007  -0.00573   0.00526  -0.00535  -0.00048
  11        4YY        -0.00787   0.00256  -0.00164   0.00376   0.02763
  12        4ZZ         0.01025   0.00440  -0.00487   0.00301   0.00557
  13        4XY         0.00248   0.01252  -0.01250   0.01364  -0.01515
  14        4XZ        -0.00007  -0.00738   0.00369   0.00104   0.00699
  15        4YZ         0.01256   0.02721   0.01877  -0.00981  -0.02137
  16 2   N  1S         -0.00100   0.01602   0.01375  -0.00992  -0.12544
  17        2S          0.00858  -0.04343  -0.03471   0.02081   0.25896
  18        2PX         0.12688  -0.25228   0.41729  -0.33979   0.03407
  19        2PY         0.11853  -0.20962  -0.01221  -0.02527   0.09919
  20        2PZ         0.31228  -0.21721  -0.31136   0.17158  -0.06549
  21        3S         -0.02536  -0.06012  -0.05205   0.06486   1.08039
  22        3PX         0.07238  -0.15881   0.30081  -0.31703   0.04701
  23        3PY         0.07426  -0.15511  -0.01070  -0.02704   0.13156
  24        3PZ         0.18095  -0.13514  -0.21884   0.16843  -0.06906
  25        4XX         0.00368  -0.00512  -0.00309  -0.01139  -0.01147
  26        4YY         0.00002   0.01464   0.00649   0.00512  -0.02836
  27        4ZZ        -0.00283  -0.00411  -0.00021   0.00206  -0.01747
  28        4XY        -0.00546   0.00610   0.00774   0.02369   0.01006
  29        4XZ         0.00055  -0.00336  -0.00590  -0.00531  -0.00618
  30        4YZ        -0.00862   0.02552   0.00632  -0.00309   0.02344
  31 3   H  1S          0.16514   0.19426   0.06599  -0.01955   0.00103
  32        2S          0.09414   0.13065   0.05002  -0.01864   0.02855
  33 4   H  1S         -0.15850  -0.13456  -0.05673   0.02299   0.20071
  34        2S         -0.09280  -0.09708  -0.05220   0.04478   0.51377
  35 5   H  1S         -0.14650   0.20950   0.06765   0.02864  -0.04361
  36        2S         -0.08909   0.16582   0.06417   0.04642  -0.22178
  37 6   H  1S          0.10629  -0.10896  -0.02415  -0.04522  -0.20376
  38        2S          0.05621  -0.07960  -0.02214  -0.06905  -0.59350
                          11        12        13        14        15
                           V         V         V         V         V
     Eigenvalues --    -0.20540  -0.12066  -0.07607  -0.02771   0.24567
   1 1   C  1S          0.03731   0.08057   0.05659  -0.04914  -0.00850
   2        2S         -0.08653  -0.15014  -0.14733   0.07569   0.40595
   3        2PX        -0.00238   0.09763  -0.03410   0.14533   0.07746
   4        2PY        -0.05435  -0.20210  -0.21127  -0.36238  -0.81663
   5        2PZ         0.10459   0.13984  -0.30861   0.35953  -0.22672
   6        3S         -0.35137  -1.08703  -0.92926   0.78568  -0.63780
   7        3PX         0.01849   0.14686  -0.04114   0.37898  -0.23427
   8        3PY        -0.14164  -0.30723  -0.78508  -1.14387   1.64388
   9        3PZ         0.16831   0.12512  -0.75237   0.90533   0.12783
  10        4XX         0.00179  -0.00488   0.00231   0.00601   0.02514
  11        4YY        -0.00447   0.01815  -0.01922  -0.03780   0.04138
  12        4ZZ         0.01187   0.00303   0.01443   0.01663  -0.00741
  13        4XY        -0.01002   0.00275   0.00653   0.00815  -0.00939
  14        4XZ         0.01091  -0.00092   0.00003   0.00162  -0.00205
  15        4YZ        -0.02461   0.00509   0.01983   0.00541  -0.02745
  16 2   N  1S          0.05596   0.03527  -0.00593   0.04603   0.01277
  17        2S         -0.10194  -0.05647  -0.01605  -0.05916   0.00701
  18        2PX         0.09515  -0.17432   0.08977   0.10168   0.04964
  19        2PY         0.33220   0.05249  -0.10893  -0.35371   0.00870
  20        2PZ         0.20478  -0.30131   0.15400   0.11509   0.07603
  21        3S         -0.62337  -0.53249   0.13443  -0.62595   0.74917
  22        3PX         0.12997  -0.28668   0.17725   0.30174  -0.15492
  23        3PY         0.43314   0.15366  -0.17868  -1.09916   0.31907
  24        3PZ         0.29030  -0.45664   0.36230   0.35389  -0.30624
  25        4XX         0.00864   0.00664  -0.00793   0.00383  -0.03356
  26        4YY         0.01208   0.00619  -0.02239   0.04948   0.13584
  27        4ZZ         0.00595   0.00910   0.01015  -0.00274  -0.01244
  28        4XY         0.01087  -0.00548   0.00390  -0.01062  -0.04026
  29        4XZ        -0.00409   0.00059   0.00414   0.00008   0.02588
  30        4YZ         0.02454  -0.00836   0.00135  -0.00478  -0.04970
  31 3   H  1S         -0.05112   0.07006   0.13777   0.00059  -0.17678
  32        2S         -0.04540   0.61600   1.86790  -0.60919  -0.06145
  33 4   H  1S          0.12091   0.11372  -0.06120   0.03425   0.09053
  34        2S          0.51670   0.94741   0.02448   1.26785  -0.46883
  35 5   H  1S          0.26723  -0.10207   0.00382   0.02118   0.23992
  36        2S          1.09274  -0.40165   0.14043  -0.24380  -0.10443
  37 6   H  1S         -0.06210   0.15176  -0.07121   0.02398   0.14760
  38        2S          0.05640   1.15664  -0.66375  -0.90693  -0.04755
                          16        17        18        19        20
                           V         V         V         V         V
     Eigenvalues --     0.28846   0.32209   0.43884   0.45003   0.49654
   1 1   C  1S         -0.00619  -0.03281  -0.05125   0.02124  -0.00167
   2        2S         -0.02206  -0.04133  -0.65153   0.30557   0.10223
   3        2PX        -0.98855   0.02358   0.10585   0.13285   0.03743
   4        2PY        -0.14825   0.15569  -0.09090   0.08255  -0.17238
   5        2PZ         0.13007  -0.59950  -0.02445  -0.08461   0.04100
[...]
  28        4XY        -0.00015  -0.00001   0.00047
  29        4XZ         0.00028   0.00003  -0.00038   0.00038
  30        4YZ         0.00049  -0.00012   0.00066  -0.00042   0.00167
  31 3   H  1S          0.00904  -0.00305   0.00057  -0.00193   0.00660
  32        2S          0.00481  -0.00150   0.00113  -0.00136   0.00555
  33 4   H  1S         -0.00208   0.00235  -0.00222   0.00197  -0.00592
  34        2S         -0.00277   0.00179  -0.00155   0.00156  -0.00420
  35 5   H  1S          0.01125  -0.00072   0.00284   0.00060   0.01267
  36        2S          0.00614  -0.00066   0.00366  -0.00155   0.01072
  37 6   H  1S          0.00410   0.00136  -0.00739   0.00662  -0.01002
  38        2S         -0.00163   0.00088  -0.00267   0.00168  -0.00550
                          31        32        33        34        35
  31 3   H  1S          0.21090
  32        2S          0.10512   0.06185
  33 4   H  1S         -0.03892  -0.04995   0.18132
  34        2S         -0.05354  -0.04025   0.09378   0.05552
  35 5   H  1S          0.03507   0.03317  -0.01593  -0.01662   0.17114
  36        2S          0.04394   0.03413  -0.01882  -0.01908   0.10921
  37 6   H  1S         -0.00690  -0.00482   0.03056   0.02529  -0.02103
  38        2S         -0.00728  -0.00786   0.02514   0.01760  -0.04325
                          36        37        38
  36        2S          0.08067
  37 6   H  1S         -0.04548   0.17470
  38        2S         -0.03550   0.05883   0.02977
    Full Mulliken population analysis:
                           1         2         3         4         5
   1 1   C  1S          2.05113
   2        2S         -0.01702   0.37282
   3        2PX         0.00000   0.00000   0.23323
   4        2PY         0.00000   0.00000   0.00000   0.34772
   5        2PZ         0.00000   0.00000   0.00000   0.00000   0.48863
   6        3S         -0.02939   0.24608   0.00000   0.00000   0.00000
   7        3PX         0.00000   0.00000   0.07492   0.00000   0.00000
   8        3PY         0.00000   0.00000   0.00000   0.05938   0.00000
   9        3PZ         0.00000   0.00000   0.00000   0.00000   0.11854
  10        4XX        -0.00090  -0.01132   0.00000   0.00000   0.00000
  11        4YY        -0.00153   0.00211   0.00000   0.00000   0.00000
  12        4ZZ        -0.00162   0.00317   0.00000   0.00000   0.00000
  13        4XY         0.00000   0.00000   0.00000   0.00000   0.00000
  14        4XZ         0.00000   0.00000   0.00000   0.00000   0.00000
  15        4YZ         0.00000   0.00000   0.00000   0.00000   0.00000
  16 2   N  1S          0.00000  -0.00014  -0.00003  -0.00095  -0.00004
  17        2S         -0.00006   0.00408   0.00057   0.02191   0.00081
  18        2PX        -0.00001   0.00051   0.00905   0.00497   0.00134
  19        2PY        -0.00035   0.01502   0.00415   0.04170   0.00256
  20        2PZ        -0.00005   0.00205   0.00255   0.00447   0.00059
  21        3S         -0.00049   0.00839   0.00021   0.04009  -0.00148
  22        3PX        -0.00007   0.00056   0.03267   0.00572   0.00165
  23        3PY        -0.00286   0.03015   0.00447   0.03044  -0.00032
  24        3PZ        -0.00036   0.00359   0.00359   0.00297   0.00190
  25        4XX         0.00000  -0.00016   0.00001  -0.00019  -0.00006
  26        4YY        -0.00008   0.00124   0.00023  -0.00140   0.00128
  27        4ZZ         0.00000  -0.00017  -0.00003  -0.00014   0.00000
  28        4XY        -0.00001   0.00012   0.00027   0.00003  -0.00002
  29        4XZ         0.00000   0.00000   0.00009   0.00003   0.00003
  30        4YZ        -0.00003   0.00039   0.00000   0.00085   0.00041
  31 3   H  1S         -0.00215   0.03649   0.00101   0.03481   0.07724
  32        2S         -0.00017   0.00667   0.00055   0.01275   0.03246
  33 4   H  1S         -0.00119   0.02802   0.00683   0.01347   0.04749
  34        2S         -0.00107   0.01488   0.00415   0.00321   0.02789
  35 5   H  1S          0.00000  -0.00003   0.00000  -0.00024  -0.00001
  36        2S          0.00002  -0.00038   0.00002  -0.00373  -0.00018
  37 6   H  1S          0.00000  -0.00004  -0.00001  -0.00018  -0.00004
  38        2S          0.00001  -0.00022  -0.00015  -0.00161  -0.00069
                           6         7         8         9        10
   6        3S          0.27324
   7        3PX         0.00000   0.07617
   8        3PY         0.00000   0.00000   0.03714
   9        3PZ         0.00000   0.00000   0.00000   0.09220
  10        4XX        -0.00732   0.00000   0.00000   0.00000   0.00096
  11        4YY        -0.00014   0.00000   0.00000   0.00000  -0.00004
  12        4ZZ         0.00421   0.00000   0.00000   0.00000  -0.00005
  13        4XY         0.00000   0.00000   0.00000   0.00000   0.00000
  14        4XZ         0.00000   0.00000   0.00000   0.00000   0.00000
  15        4YZ         0.00000   0.00000   0.00000   0.00000   0.00000
  16 2   N  1S          0.00013   0.00004  -0.00089   0.00005   0.00000
  17        2S         -0.00347  -0.00053   0.01065  -0.00063  -0.00010
  18        2PX        -0.00013   0.02064   0.00277   0.00107   0.00006
  19        2PY         0.00566   0.00159   0.00842  -0.00156  -0.00024
  20        2PZ         0.00154   0.00206  -0.00013   0.00100  -0.00002
  21        3S         -0.01273  -0.00172   0.01882  -0.00362  -0.00041
  22        3PX        -0.00067   0.05125   0.00403   0.00158  -0.00023
  23        3PY         0.01120   0.00200   0.00511  -0.00414  -0.00061
  24        3PZ         0.00257   0.00335  -0.00131   0.00116  -0.00001
  25        4XX        -0.00022  -0.00004   0.00009  -0.00009   0.00000
  26        4YY         0.00124   0.00018  -0.00113   0.00078  -0.00004
  27        4ZZ        -0.00018  -0.00002  -0.00001  -0.00018   0.00001
  28        4XY         0.00004   0.00029   0.00000  -0.00001   0.00000
  29        4XZ         0.00000   0.00009   0.00000   0.00003   0.00000
  30        4YZ         0.00013  -0.00002   0.00006   0.00057   0.00000
  31 3   H  1S          0.04198   0.00075   0.01776   0.04326  -0.00095
  32        2S          0.00925   0.00074   0.00876   0.03143  -0.00071
  33 4   H  1S          0.05060   0.00584   0.01039   0.03650  -0.00037
  34        2S          0.03230   0.00482   0.00268   0.02751  -0.00005
  35 5   H  1S         -0.00022   0.00003  -0.00240  -0.00018   0.00000
  36        2S          0.00071   0.00015  -0.00586  -0.00058  -0.00003
  37 6   H  1S         -0.00052  -0.00010  -0.00169  -0.00053   0.00000
  38        2S          0.00080  -0.00039  -0.00187  -0.00173   0.00004
                          11        12        13        14        15
  11        4YY         0.00109
  12        4ZZ        -0.00015   0.00098
  13        4XY         0.00000   0.00000   0.00075
  14        4XZ         0.00000   0.00000   0.00000   0.00026
  15        4YZ         0.00000   0.00000   0.00000   0.00000   0.00270
  16 2   N  1S         -0.00005   0.00000  -0.00001   0.00000  -0.00003
  17        2S          0.00169  -0.00022   0.00023   0.00002   0.00080
  18        2PX         0.00060   0.00001   0.00073   0.00012   0.00024
  19        2PY         0.00183  -0.00044   0.00066   0.00011   0.00169
  20        2PZ         0.00110   0.00005   0.00019   0.00001   0.00028
  21        3S          0.00312  -0.00117   0.00019   0.00001   0.00080
  22        3PX         0.00065   0.00011   0.00136   0.00021   0.00016
  23        3PY         0.00148  -0.00110   0.00025   0.00007   0.00067
  24        3PZ         0.00112  -0.00043   0.00011   0.00002   0.00101
  25        4XX        -0.00004   0.00000   0.00000   0.00000   0.00001
  26        4YY         0.00007   0.00002   0.00000   0.00000  -0.00017
  27        4ZZ        -0.00002   0.00000   0.00000   0.00000   0.00000
  28        4XY        -0.00001   0.00001   0.00000   0.00000   0.00004
  29        4XZ         0.00000   0.00000   0.00000   0.00000  -0.00001
  30        4YZ        -0.00002   0.00000   0.00004  -0.00001  -0.00008
  31 3   H  1S         -0.00079   0.00334   0.00006   0.00002   0.00498
  32        2S         -0.00088   0.00170   0.00001  -0.00001   0.00076
  33 4   H  1S         -0.00048   0.00062   0.00026   0.00046   0.00241
  34        2S         -0.00054   0.00014   0.00003   0.00006   0.00056
  35 5   H  1S          0.00001   0.00000   0.00000   0.00000   0.00000
  36        2S          0.00009  -0.00002  -0.00001   0.00000   0.00005
  37 6   H  1S         -0.00001   0.00000   0.00000   0.00000   0.00000
  38        2S         -0.00019   0.00009   0.00001   0.00001   0.00007
                          16        17        18        19        20
  16 2   N  1S          2.05704
  17        2S         -0.02659   0.41258
  18        2PX         0.00000   0.00000   0.54867
  19        2PY         0.00000   0.00000   0.00000   0.44936
  20        2PZ         0.00000   0.00000   0.00000   0.00000   0.55469
  21        3S         -0.03262   0.33560   0.00000   0.00000   0.00000
  22        3PX         0.00000   0.00000   0.19245   0.00000   0.00000
  23        3PY         0.00000   0.00000   0.00000   0.13490   0.00000
  24        3PZ         0.00000   0.00000   0.00000   0.00000   0.17838
  25        4XX        -0.00059  -0.00618   0.00000   0.00000   0.00000
  26        4YY        -0.00115   0.00886   0.00000   0.00000   0.00000
  27        4ZZ        -0.00076  -0.00169   0.00000   0.00000   0.00000
  28        4XY         0.00000   0.00000   0.00000   0.00000   0.00000
  29        4XZ         0.00000   0.00000   0.00000   0.00000   0.00000
  30        4YZ         0.00000   0.00000   0.00000   0.00000   0.00000
  31 3   H  1S          0.00000  -0.00017  -0.00001  -0.00037  -0.00002
  32        2S          0.00016  -0.00270  -0.00007  -0.00399  -0.00030
  33 4   H  1S          0.00000   0.00000   0.00000  -0.00001  -0.00001
  34        2S          0.00001  -0.00029   0.00000  -0.00059  -0.00064
  35 5   H  1S         -0.00036   0.00806   0.00213   0.03123   0.02035
  36        2S          0.00033  -0.00612   0.00147   0.01775   0.01550
  37 6   H  1S         -0.00161   0.02921   0.01665   0.02064   0.03768
  38        2S         -0.00020   0.00196   0.00483   0.00082   0.01313
                          21        22        23        24        25
  21        3S          0.46036
  22        3PX         0.00000   0.25274
  23        3PY         0.00000   0.00000   0.15378
  24        3PZ         0.00000   0.00000   0.00000   0.21559
  25        4XX        -0.00645   0.00000   0.00000   0.00000   0.00048
  26        4YY         0.00956   0.00000   0.00000   0.00000  -0.00016
  27        4ZZ        -0.00122   0.00000   0.00000   0.00000   0.00007
  28        4XY         0.00000   0.00000   0.00000   0.00000   0.00000
  29        4XZ         0.00000   0.00000   0.00000   0.00000   0.00000
  30        4YZ         0.00000   0.00000   0.00000   0.00000   0.00000
  31 3   H  1S         -0.00411  -0.00012  -0.00565  -0.00044   0.00000
  32        2S         -0.01075  -0.00028  -0.01297  -0.00127  -0.00006
  33 4   H  1S         -0.00022  -0.00001  -0.00038  -0.00066   0.00000
  34        2S         -0.00023   0.00024  -0.00091  -0.00305   0.00003
  35 5   H  1S          0.02000   0.00308   0.05321   0.03383  -0.00046
  36        2S         -0.01160   0.00224   0.03605   0.02946  -0.00083
  37 6   H  1S          0.05139   0.01667   0.01723   0.03884  -0.00012
  38        2S          0.00316   0.00737  -0.00186   0.02168   0.00056
                          26        27        28        29        30
  26        4YY         0.00151
  27        4ZZ        -0.00002   0.00023
  28        4XY         0.00000   0.00000   0.00047
  29        4XZ         0.00000   0.00000   0.00000   0.00038
  30        4YZ         0.00000   0.00000   0.00000   0.00000   0.00167
  31 3   H  1S          0.00020  -0.00001   0.00000   0.00000   0.00005
  32        2S          0.00070  -0.00013  -0.00002   0.00000   0.00012
  33 4   H  1S          0.00000   0.00000   0.00000   0.00000   0.00000
  34        2S         -0.00011   0.00005   0.00002   0.00001   0.00009
  35 5   H  1S          0.00289  -0.00011   0.00019   0.00003   0.00256
  36        2S          0.00219  -0.00021   0.00008  -0.00002   0.00072
  37 6   H  1S          0.00112   0.00035   0.00130   0.00111   0.00242
  38        2S         -0.00064   0.00034   0.00011   0.00006   0.00030
                          31        32        33        34        35
  31 3   H  1S          0.21090
  32        2S          0.06920   0.06185
  33 4   H  1S         -0.00054  -0.00667   0.18132
  34        2S         -0.00715  -0.01510   0.06173   0.05552
  35 5   H  1S          0.00000   0.00018   0.00000  -0.00007   0.17114
  36        2S          0.00024   0.00177  -0.00008  -0.00085   0.07189
  37 6   H  1S          0.00000  -0.00008   0.00000   0.00003  -0.00106
  38        2S         -0.00012  -0.00082   0.00003   0.00036  -0.00959
                          36        37        38
  36        2S          0.08067
  37 6   H  1S         -0.01009   0.17470
  38        2S         -0.01820   0.03873   0.02977
     Gross orbital populations:
                           1
   1 1   C  1S          1.99177
   2        2S          0.74685
   3        2PX         0.37837
   4        2PY         0.61610
   5        2PZ         0.80001
   6        3S          0.62668
   7        3PX         0.24209
   8        3PY         0.17079
   9        3PZ         0.34241
  10        4XX        -0.02230
  11        4YY         0.01007
  12        4ZZ         0.00927
  13        4XY         0.00487
  14        4XZ         0.00137
  15        4YZ         0.01694
  16 2   N  1S          1.99176
  17        2S          0.78828
  18        2PX         0.80810
  19        2PY         0.73058
  20        2PZ         0.83446
  21        3S          0.86290
  22        3PX         0.57338
  23        3PY         0.45022
  24        3PZ         0.53165
  25        4XX        -0.01441
  26        4YY         0.02718
  27        4ZZ        -0.00383
  28        4XY         0.00290
  29        4XZ         0.00182
  30        4YZ         0.01025
  31 3   H  1S          0.51971
  32        2S          0.18210
  33 4   H  1S          0.43536
  34        2S          0.20566
  35 5   H  1S          0.40610
  36        2S          0.20261
  37 6   H  1S          0.43201
  38        2S          0.08593
          Condensed to atoms (all electrons):
               1          2          3          4          5          6
     1  C    4.856886   0.421563   0.361152   0.317425  -0.012794  -0.008951
     2  N    0.421563   6.674352  -0.042189  -0.006658   0.263659   0.284506
     3  H    0.361152  -0.042189   0.411146  -0.029460   0.002190  -0.001029
     4  H    0.317425  -0.006658  -0.029460   0.360306  -0.001004   0.000415
     5  H   -0.012794   0.263659   0.002190  -0.001004   0.395599  -0.038936
     6  H   -0.008951   0.284506  -0.001029   0.000415  -0.038936   0.281932
 Mulliken charges:
               1
     1  C    0.064719
     2  N   -0.595232
     3  H    0.298189
     4  H    0.358975
     5  H    0.391286
     6  H    0.482063
 Sum of Mulliken charges =   1.00000
 Mulliken charges with hydrogens summed into heavy atoms:
               1
     1  C    0.721884
     2  N    0.278116
 Electronic spatial extent (au):  <R**2>=            635.2566
 Charge=              1.0000 electrons
 Dipole moment (field-independent basis, Debye):
    X=            -12.4350    Y=             -5.4806    Z=              6.0266  Tot=             14.8656
 Quadrupole moment (field-independent basis, Debye-Ang):
   XX=             20.4527   YY=              6.2829   ZZ=             -1.4800
   XY=             11.4064   XZ=            -13.6017   YZ=             -9.7576
 Traceless Quadrupole moment (field-independent basis, Debye-Ang):
   XX=             12.0342   YY=             -2.1356   ZZ=             -9.8986
   XY=             11.4064   XZ=            -13.6017   YZ=             -9.7576
 Octapole moment (field-independent basis, Debye-Ang**2):
  XXX=              8.3641  YYY=            -13.6818  ZZZ=            -26.7357  XYY=            -10.0315
  XXY=            -10.3736  XXZ=             14.8049  XZZ=              9.3141  YZZ=             -5.8967
  YYZ=             12.6188  XYZ=             18.8847
 Hexadecapole moment (field-independent basis, Debye-Ang**3):
 XXXX=           -276.5190 YYYY=              1.4192 ZZZZ=           -104.3610 XXXY=            -49.4555
 XXXZ=             52.4874 YYYX=             24.6520 YYYZ=            -22.3562 ZZZX=             79.8333
 ZZZY=             17.6551 XXYY=            -13.5272 XXZZ=            -63.3229 YYZZ=              5.3115
 XXYZ=            -16.4476 YYXZ=            -17.2644 ZZXY=              1.8598
 N-N= 3.371941361595D+01 E-N=-2.822091637321D+02  KE= 9.304707284620D+01
 Orbital energies and kinetic energies (alpha):
                                 1                 2
   1         O               -14.696078         21.966923
   2         O               -10.592486         15.892129
   3         O                -1.145586          1.866454
   4         O                -0.948812          1.485511
   5         O                -0.779384          1.368259
   6         O                -0.723511          1.162325
   7         O                -0.638116          1.305287
   8         O                -0.582038          1.476649
   9         V                -0.363222          1.553861
  10         V                -0.265327          1.782810
  11         V                -0.205403          1.257033
  12         V                -0.120659          1.247283
  13         V                -0.076072          1.009029
  14         V                -0.027707          1.676382
  15         V                 0.245673          1.769525
  16         V                 0.288457          2.011317
  17         V                 0.322086          1.706227
  18         V                 0.438838          1.847015
  19         V                 0.450028          2.476943
  20         V                 0.496544          2.538187
  21         V                 0.537942          2.322656
  22         V                 0.555358          2.480349
  23         V                 0.634618          2.454614
  24         V                 0.723331          2.458293
  25         V                 0.823247          2.269792
  26         V                 0.872965          2.242071
  27         V                 1.132751          2.577980
  28         V                 1.307068          2.729037
  29         V                 1.447176          2.916463
  30         V                 1.462971          2.936885
  31         V                 1.569273          3.314061
  32         V                 1.647874          3.143383
  33         V                 1.864761          3.478005
  34         V                 1.884577          3.430460
  35         V                 2.094869          3.777920
  36         V                 2.388868          4.377047
  37         V                 3.308443          9.479409
  38         V                 3.813119          9.788721
 Total kinetic energy from orbitals= 9.304707284620D+01

 Test job not archived.
 1\1\GINC-EAM\SP\RB3LYP TD-FC\Gen\C1H4N1(1+)\DULIKAI\29-Apr-2014\0\\# t
 d(singlet, root=0, nstates=2) b3lyp/ChkBasis scf=(tight,maxcycle=10000
 ) iop(9/40=20) nosymm pop=full geom=AllCheck Guess=Read\\[0] [0]\\1,1\
 C,-2.7646746,-0.3035078,1.0767215\N,-2.4308579,-1.7026411,1.5676618\H,
 -2.6889804,0.2957416,1.9604705\H,-3.1210837,0.4337961,0.1717645\H,-2.6
 496033,-2.7327209,0.9102532\H,-1.9542788,-2.3926377,2.2222609\\Version
 =EM64L-G09RevD.01\HF=-94.8180804\RMSD=4.415e-10\PG=C01 [X(C1H4N1)]\\@


 THE WORLD IS NOT A HAMBURGER - YOU CAN'T HAVE IT YOUR WAY.
 Job cpu time:       0 days  0 hours  0 minutes  6.4 seconds.
 File lengths (MBytes):  RWF=      5 Int=      0 D2E=      0 Chk=      1 Scr=      1
 Normal termination of Gaussian 09 at Tue Apr 29 21:35:06 2014.
