 Entering Gaussian System, Link 0=g09
 Input=gaussian.gjf
 Output=gaussian.log
 Initial command:
 /opt/g09_D01_em64t/g09/l1.exe "/tmp/Gau-16921.inp" -scrdir="/tmp/"
 Entering Link 1 = /opt/g09_D01_em64t/g09/l1.exe PID=     16922.
  
 Copyright (c) 1988,1990,1992,1993,1995,1998,2003,2009,2013,
            Gaussian, Inc.  All Rights Reserved.
  
 This is part of the Gaussian(R) 09 program.  It is based on
 the Gaussian(R) 03 system (copyright 2003, Gaussian, Inc.),
 the Gaussian(R) 98 system (copyright 1998, Gaussian, Inc.),
 the Gaussian(R) 94 system (copyright 1995, Gaussian, Inc.),
 the Gaussian 92(TM) system (copyright 1992, Gaussian, Inc.),
 the Gaussian 90(TM) system (copyright 1990, Gaussian, Inc.),
 the Gaussian 88(TM) system (copyright 1988, Gaussian, Inc.),
 the Gaussian 86(TM) system (copyright 1986, Carnegie Mellon
 University), and the Gaussian 82(TM) system (copyright 1983,
 Carnegie Mellon University). Gaussian is a federally registered
 trademark of Gaussian, Inc.
  
 This software contains proprietary and confidential information,
 including trade secrets, belonging to Gaussian, Inc.
  
 This software is provided under written license and may be
 used, copied, transmitted, or stored only in accord with that
 written license.
  
 The following legend is applicable only to US Government
 contracts under FAR:
  
                    RESTRICTED RIGHTS LEGEND
  
 Use, reproduction and disclosure by the US Government is
 subject to restrictions as set forth in subparagraphs (a)
 and (c) of the Commercial Computer Software - Restricted
 Rights clause in FAR 52.227-19.
  
 Gaussian, Inc.
 340 Quinnipiac St., Bldg. 40, Wallingford CT 06492
  
  
 ---------------------------------------------------------------
 Warning -- This program may not be used in any manner that
 competes with the business of Gaussian, Inc. or will provide
 assistance to any competitor of Gaussian, Inc.  The licensee
 of this program is prohibited from giving any competitor of
 Gaussian, Inc. access to this program.  By using this program,
 the user acknowledges that Gaussian, Inc. is engaged in the
 business of creating and licensing software in the field of
 computational chemistry and represents and warrants to the
 licensee that it is not a competitor of Gaussian, Inc. and that
 it will not use this program in any manner prohibited above.
 ---------------------------------------------------------------
  

 Cite this work as:
 Gaussian 09, Revision D.01,
 M. J. Frisch, G. W. Trucks, H. B. Schlegel, G. E. Scuseria, 
 M. A. Robb, J. R. Cheeseman, G. Scalmani, V. Barone, B. Mennucci, 
 G. A. Petersson, H. Nakatsuji, M. Caricato, X. Li, H. P. Hratchian, 
 A. F. Izmaylov, J. Bloino, G. Zheng, J. L. Sonnenberg, M. Hada, 
 M. Ehara, K. Toyota, R. Fukuda, J. Hasegawa, M. Ishida, T. Nakajima, 
 Y. Honda, O. Kitao, H. Nakai, T. Vreven, J. A. Montgomery, Jr., 
 J. E. Peralta, F. Ogliaro, M. Bearpark, J. J. Heyd, E. Brothers, 
 K. N. Kudin, V. N. Staroverov, T. Keith, R. Kobayashi, J. Normand, 
 K. Raghavachari, A. Rendell, J. C. Burant, S. S. Iyengar, J. Tomasi, 
 M. Cossi, N. Rega, J. M. Millam, M. Klene, J. E. Knox, J. B. Cross, 
 V. Bakken, C. Adamo, J. Jaramillo, R. Gomperts, R. E. Stratmann, 
 O. Yazyev, A. J. Austin, R. Cammi, C. Pomelli, J. W. Ochterski, 
 R. L. Martin, K. Morokuma, V. G. Zakrzewski, G. A. Voth, 
 P. Salvador, J. J. Dannenberg, S. Dapprich, A. D. Daniels, 
 O. Farkas, J. B. Foresman, J. V. Ortiz, J. Cioslowski, 
 and D. J. Fox, Gaussian, Inc., Wallingford CT, 2013.
 
 ******************************************
 Gaussian 09:  EM64L-G09RevD.01 24-Apr-2013
                29-Apr-2014 
 ******************************************
 %chk=gaussian.chk
 %mem=1GB
 %nproc=2
 Will use up to    2 processors via shared memory.
 %nproclinda=1
 Will use up to    1 processors via Linda.
 ----------------------------------------------------------------------
 # b3lyp/6-31g* scf=(tight,maxcycle=10000) iop(9/40=20) nosymm pop=full
 ----------------------------------------------------------------------
 1/38=1/1;
 2/12=2,15=1,17=6,18=5,40=1/2;
 3/5=1,6=6,7=1,11=2,16=1,25=1,30=1,74=-5/1,2,3;
 4//1;
 5/5=2,7=10000,32=2,38=5/2;
 6/7=3,28=1/1;
 99/5=1,9=1/99;
 -------
 [0] [0]
 -------
 Symbolic Z-matrix:
 Charge =  1 Multiplicity = 1
 c                    -2.76794  -0.29739   1.07044 
 n                    -2.42754  -1.70641   1.56659 
 h                    -2.69973   0.31153   1.95994 
 h                    -3.10711   0.46769   0.18048 
 h                    -2.64873  -2.72667   0.92865 
 h                    -1.92517  -2.40377   2.22474 
 
                          Input orientation:                          
 ---------------------------------------------------------------------
 Center     Atomic      Atomic             Coordinates (Angstroms)
 Number     Number       Type             X           Y           Z
 ---------------------------------------------------------------------
      1          6           0       -2.767941   -0.297394    1.070443
      2          7           0       -2.427536   -1.706412    1.566587
      3          1           0       -2.699725    0.311525    1.959943
      4          1           0       -3.107106    0.467694    0.180481
      5          1           0       -2.648726   -2.726668    0.928649
      6          1           0       -1.925171   -2.403768    2.224739
 ---------------------------------------------------------------------
                    Distance matrix (angstroms):
                    1          2          3          4          5
     1  C    0.000000
     2  N    1.532112   0.000000
     3  H    1.080114   2.073858   0.000000
     4  H    1.221648   2.666428   1.832166   0.000000
     5  H    2.436327   1.223442   3.208860   3.312674   0.000000
     6  H    2.545480   1.082515   2.835995   3.717694   1.519093
                    6
     6  H    0.000000
 Symmetry turned off by external request.
 Stoichiometry    CH4N(1+)
 Framework group  C1[X(CH4N)]
 Deg. of freedom    12
 Full point group                 C1      NOp   1
 Rotational constants (GHZ):    185.5383974     20.3641215     18.4465217
 Standard basis: 6-31G(d) (6D, 7F)
    38 basis functions,    72 primitive gaussians,    38 cartesian basis functions
     8 alpha electrons        8 beta electrons
       nuclear repulsion energy        33.5112659531 Hartrees.
 NAtoms=    6 NActive=    6 NUniq=    6 SFac= 1.00D+00 NAtFMM=   60 NAOKFM=F Big=F
 Integral buffers will be    131072 words long.
 Raffenetti 2 integral format.
 Two-electron integral symmetry is turned off.
 One-electron integrals computed using PRISM.
 NBasis=    38 RedAO= T EigKep=  1.30D-02  NBF=    38
 NBsUse=    38 1.00D-06 EigRej= -1.00D+00 NBFU=    38
 ExpMin= 1.61D-01 ExpMax= 4.17D+03 ExpMxC= 6.27D+02 IAcc=1 IRadAn=         1 AccDes= 0.00D+00
 Harris functional with IExCor=  402 and IRadAn=       1 diagonalized for initial guess.
 HarFok:  IExCor=  402 AccDes= 0.00D+00 IRadAn=         1 IDoV= 1 UseB2=F ITyADJ=14
 ICtDFT=  3500011 ScaDFX=  1.000000  1.000000  1.000000  1.000000
 FoFCou: FMM=F IPFlag=           0 FMFlag=      100000 FMFlg1=           0
         NFxFlg=           0 DoJE=T BraDBF=F KetDBF=T FulRan=T
         wScrn=  0.000000 ICntrl=     500 IOpCl=  0 I1Cent=   200000004 NGrid=           0
         NMat0=    1 NMatS0=      1 NMatT0=    0 NMatD0=    1 NMtDS0=    0 NMtDT0=    0
 Symmetry not used in FoFCou.
 Keep R1 ints in memory in canonical form, NReq=101191747.
 Requested convergence on RMS density matrix=1.00D-08 within**** cycles.
 Requested convergence on MAX density matrix=1.00D-06.
 Requested convergence on             energy=1.00D-06.
 No special actions if energy rises.
 Integral accuracy reduced to 1.0D-05 until final iterations.
 Initial convergence to 1.0D-05 achieved.  Increase integral accuracy.
 SCF Done:  E(RB3LYP) =  -94.8122841788     A.U. after   12 cycles
            NFock= 12  Conv=0.74D-08     -V/T= 2.0194

 **********************************************************************

            Population analysis using the SCF density.

 **********************************************************************

 Alpha  occ. eigenvalues --  -14.69567 -10.59435  -1.14123  -0.94652  -0.77741
 Alpha  occ. eigenvalues --   -0.71967  -0.63792  -0.57840
 Alpha virt. eigenvalues --   -0.36549  -0.27323  -0.19807  -0.12484  -0.07969
 Alpha virt. eigenvalues --   -0.03032   0.24853   0.28800   0.32457   0.44338
 Alpha virt. eigenvalues --    0.45501   0.49981   0.53283   0.54730   0.63029
 Alpha virt. eigenvalues --    0.71356   0.82356   0.87023   1.13886   1.31261
 Alpha virt. eigenvalues --    1.44172   1.46122   1.55731   1.65646   1.85390
 Alpha virt. eigenvalues --    1.87706   2.07776   2.37915   3.30254   3.80807
     Molecular Orbital Coefficients:
                           1         2         3         4         5
                           O         O         O         O         O
     Eigenvalues --   -14.69567 -10.59435  -1.14123  -0.94652  -0.77741
   1 1   C  1S          0.00000   0.99297  -0.08678  -0.17335  -0.03871
   2        2S          0.00003   0.04678   0.18458   0.37656   0.07785
   3        2PX         0.00006   0.00007   0.02347  -0.00477  -0.08361
   4        2PY        -0.00024  -0.00065  -0.08679   0.05614   0.37059
   5        2PZ         0.00008   0.00025   0.04419   0.04572  -0.10007
   6        3S         -0.00040  -0.00915   0.10886   0.31286   0.15324
   7        3PX        -0.00005  -0.00002  -0.00216  -0.01132  -0.02704
   8        3PY         0.00023  -0.00041   0.01050   0.05210   0.11563
   9        3PZ        -0.00008  -0.00077   0.00193  -0.00527  -0.02991
  10        4XX         0.00002  -0.00924  -0.00879  -0.01594  -0.00174
  11        4YY         0.00021  -0.00886   0.01100   0.00313  -0.01538
  12        4ZZ         0.00003  -0.00902  -0.00175   0.00580   0.01394
  13        4XY        -0.00006  -0.00010  -0.00568  -0.00448   0.00245
  14        4XZ         0.00002   0.00008   0.00310   0.00571   0.00342
  15        4YZ        -0.00009  -0.00007  -0.00654  -0.00088   0.00691
  16 2   N  1S          0.99284  -0.00013  -0.19472   0.05860   0.02984
  17        2S          0.03402   0.00001   0.42290  -0.13105  -0.07483
  18        2PX         0.00009   0.00002   0.00739  -0.06759   0.12357
  19        2PY        -0.00009  -0.00013  -0.00018   0.23559  -0.33466
  20        2PZ        -0.00017   0.00005  -0.00934  -0.06794   0.16206
  21        3S          0.00377   0.00191   0.43793  -0.15820  -0.07983
  22        3PX        -0.00002   0.00010   0.00380  -0.03475   0.06573
  23        3PY         0.00001  -0.00016  -0.01443   0.13380  -0.17693
  24        3PZ         0.00006   0.00012  -0.00857  -0.02995   0.08394
  25        4XX        -0.00803  -0.00013  -0.01052   0.00150   0.00151
  26        4YY        -0.00806  -0.00075   0.01987  -0.00239   0.00632
  27        4ZZ        -0.00802  -0.00022  -0.00343  -0.00247   0.00284
  28        4XY         0.00001   0.00019  -0.00897   0.00242  -0.00450
  29        4XZ         0.00000  -0.00006   0.00969  -0.00587   0.00430
  30        4YZ         0.00003   0.00027  -0.00761  -0.00149  -0.00066
  31 3   H  1S          0.00001  -0.00024   0.04558   0.15173   0.09755
  32        2S         -0.00006   0.00240  -0.00225   0.02659   0.03894
  33 4   H  1S         -0.00001  -0.00028   0.02178   0.11716   0.17797
  34        2S         -0.00002   0.00145  -0.00564   0.01769   0.08370
  35 5   H  1S          0.00022  -0.00017   0.08807  -0.08306   0.05446
  36        2S         -0.00031   0.00007   0.00146  -0.01513   0.02682
  37 6   H  1S          0.00030  -0.00001   0.11924  -0.13529   0.16633
  38        2S         -0.00047  -0.00043   0.00156  -0.01924   0.06690
                           6         7         8         9        10
                           O         O         O         V         V
     Eigenvalues --    -0.71967  -0.63792  -0.57840  -0.36549  -0.27323
   1 1   C  1S          0.01779   0.01023  -0.00395   0.00905   0.11819
   2        2S         -0.03797  -0.02547   0.00945  -0.02164  -0.25675
   3        2PX         0.08490  -0.04727   0.31374   0.52754  -0.07059
   4        2PY         0.06778   0.11938   0.07427   0.12088   0.26888
   5        2PZ         0.35125   0.32663   0.03101  -0.12321   0.10462
   6        3S         -0.05724  -0.02468   0.01130  -0.04728  -0.83433
   7        3PX         0.03705  -0.02153   0.18913   0.45955  -0.07564
   8        3PY         0.01150   0.03286   0.04325   0.09484   0.31834
   9        3PZ         0.14071   0.16143   0.00519  -0.09247   0.12343
  10        4XX         0.00013  -0.00563   0.00505  -0.00536  -0.00001
  11        4YY        -0.00826   0.00220  -0.00153   0.00449   0.02771
  12        4ZZ         0.01056   0.00496  -0.00465   0.00335   0.00567
  13        4XY         0.00213   0.01230  -0.01199   0.01304  -0.01578
  14        4XZ         0.00021  -0.00723   0.00340   0.00122   0.00692
  15        4YZ         0.01253   0.02725   0.01907  -0.01045  -0.02148
  16 2   N  1S         -0.00176   0.01639   0.01462  -0.01303  -0.12392
  17        2S          0.00995  -0.04304  -0.03648   0.02796   0.25702
  18        2PX         0.13802  -0.25550   0.41148  -0.33412   0.04883
  19        2PY         0.11564  -0.20601  -0.01284  -0.02156   0.11230
  20        2PZ         0.32082  -0.20549  -0.31900   0.17331  -0.06373
  21        3S         -0.02176  -0.06471  -0.05638   0.08318   1.03998
  22        3PX         0.07973  -0.16075   0.29835  -0.30845   0.06176
  23        3PY         0.06932  -0.14955  -0.01014  -0.02388   0.14489
  24        3PZ         0.18685  -0.12677  -0.22470   0.16970  -0.06779
  25        4XX         0.00412  -0.00501  -0.00326  -0.01136  -0.01087
  26        4YY        -0.00030   0.01444   0.00655   0.00476  -0.02815
  27        4ZZ        -0.00286  -0.00391   0.00014   0.00134  -0.01700
  28        4XY        -0.00619   0.00638   0.00749   0.02375   0.00969
  29        4XZ         0.00086  -0.00327  -0.00635  -0.00511  -0.00620
  30        4YZ        -0.00952   0.02526   0.00659  -0.00226   0.02344
  31 3   H  1S          0.16304   0.19761   0.06883  -0.01963  -0.00004
  32        2S          0.09470   0.13449   0.05314  -0.01876   0.02736
  33 4   H  1S         -0.15014  -0.13618  -0.05873   0.03033   0.20246
  34        2S         -0.08882  -0.09931  -0.05559   0.05692   0.49917
  35 5   H  1S         -0.15044   0.20430   0.06809   0.02909  -0.03925
  36        2S         -0.09163   0.15983   0.06461   0.04474  -0.20042
  37 6   H  1S          0.11512  -0.10949  -0.02444  -0.05316  -0.20671
  38        2S          0.06213  -0.08102  -0.02305  -0.08290  -0.57552
                          11        12        13        14        15
                           V         V         V         V         V
     Eigenvalues --    -0.19807  -0.12484  -0.07969  -0.03032   0.24853
   1 1   C  1S          0.03616   0.07939   0.06052  -0.04648  -0.00916
   2        2S         -0.08381  -0.14625  -0.15337   0.07306   0.41459
   3        2PX        -0.00094   0.09407  -0.02839   0.14341   0.06437
   4        2PY        -0.06457  -0.18182  -0.22235  -0.37650  -0.80524
   5        2PZ         0.11178   0.13974  -0.30610   0.36228  -0.26650
   6        3S         -0.35180  -1.04442  -0.96806   0.69768  -0.61116
   7        3PX         0.01869   0.13528  -0.02844   0.36693  -0.21527
   8        3PY        -0.15560  -0.25109  -0.78423  -1.13050   1.61668
   9        3PZ         0.17565   0.12659  -0.73128   0.88770   0.19078
  10        4XX         0.00175  -0.00523   0.00207   0.00611   0.02604
  11        4YY        -0.00419   0.02100  -0.01855  -0.03700   0.04432
  12        4ZZ         0.01111   0.00158   0.01448   0.01540  -0.00559
  13        4XY        -0.00969   0.00254   0.00632   0.00812  -0.01126
  14        4XZ         0.01053  -0.00159   0.00007   0.00099  -0.00011
  15        4YZ        -0.02390   0.00398   0.02007   0.00474  -0.03288
  16 2   N  1S          0.06074   0.03141  -0.00417   0.04550   0.01217
  17        2S         -0.10964  -0.04911  -0.01757  -0.05972   0.00458
  18        2PX         0.09114  -0.18937   0.08517   0.10306   0.04764
  19        2PY         0.33296   0.05996  -0.09991  -0.35497   0.00792
  20        2PZ         0.19020  -0.31462   0.14370   0.10870   0.06249
  21        3S         -0.68818  -0.46697   0.09577  -0.60139   0.71696
  22        3PX         0.12627  -0.30763   0.16552   0.29768  -0.15079
  23        3PY         0.44618   0.16060  -0.15716  -1.07258   0.31259
  24        3PZ         0.27753  -0.47571   0.33569   0.33447  -0.29301
  25        4XX         0.00956   0.00646  -0.00735   0.00380  -0.03286
  26        4YY         0.01353   0.00482  -0.02156   0.04977   0.13401
  27        4ZZ         0.00644   0.00876   0.01019  -0.00296  -0.01378
  28        4XY         0.01041  -0.00629   0.00397  -0.01113  -0.03792
  29        4XZ        -0.00438   0.00112   0.00371   0.00007   0.02480
  30        4YZ         0.02299  -0.00914   0.00110  -0.00441  -0.04448
  31 3   H  1S         -0.05124   0.06433   0.14354  -0.00608  -0.18413
  32        2S         -0.04706   0.54672   1.85932  -0.56641  -0.07821
  33 4   H  1S          0.11967   0.11461  -0.05921   0.03668   0.11524
  34        2S          0.53204   0.89933   0.08460   1.29690  -0.48731
  35 5   H  1S          0.25932  -0.10843   0.00182   0.02169   0.25249
  36        2S          1.11716  -0.43760   0.13602  -0.26741  -0.12110
  37 6   H  1S         -0.05275   0.16285  -0.06826   0.02136   0.12351
  38        2S          0.09891   1.16098  -0.58805  -0.85861  -0.02094
                          16        17        18        19        20
                           V         V         V         V         V
     Eigenvalues --     0.28800   0.32457   0.44338   0.45501   0.49981
   1 1   C  1S         -0.00705  -0.03268  -0.03817  -0.03840   0.00180
   2        2S         -0.02605  -0.06813  -0.46607  -0.52413   0.10947
   3        2PX        -0.99040   0.04719   0.15536  -0.07482   0.05331
   4        2PY        -0.13249   0.20608  -0.06917  -0.13376  -0.17540
   5        2PZ         0.11068  -0.58750  -0.04240   0.08303   0.11060
   6        3S          0.14077   0.70702   0.79132   0.93039  -0.46972
   7        3PX         1.15985   0.23716  -0.45863   0.15738  -0.24102
   8        3PY        -0.02159  -1.04224   0.71406   0.94492   0.58611
   9        3PZ         0.03768   1.52516   0.28984  -0.06511  -0.37229
  10        4XX        -0.00292   0.03752   0.05413   0.04361   0.00103
  11        4YY        -0.01222  -0.06086  -0.08935  -0.06231  -0.03438
  12        4ZZ         0.00655   0.01467  -0.13289  -0.15776   0.02952
  13        4XY         0.02232  -0.01488   0.02579   0.05224  -0.00031
  14        4XZ        -0.00417   0.01519  -0.05083  -0.06645   0.01849
  15        4YZ        -0.01702  -0.06451   0.04349   0.03621  -0.03319
  16 2   N  1S          0.00156   0.01265  -0.01651  -0.01638  -0.01411
  17        2S         -0.04342  -0.18013  -0.11830  -0.08735   0.13134
  18        2PX        -0.15634   0.03807  -0.52002   0.63816  -0.15744
  19        2PY        -0.06469  -0.15518  -0.22347  -0.12179  -0.68632
  20        2PZ         0.03182  -0.29803   0.45138  -0.19078  -0.19371
  21        3S         -0.08009  -0.50506   0.39420   0.33008  -0.11545
  22        3PX        -0.00165   0.18853   0.60185  -0.86929   0.18266
  23        3PY        -0.12923  -0.60016   0.39995   0.31353   1.20201
  24        3PZ         0.03785   0.36431  -0.67694   0.07717   0.24857
  25        4XX         0.00205  -0.02028   0.00356   0.00731   0.05133
  26        4YY        -0.01426  -0.04583  -0.05977  -0.07491  -0.02801
  27        4ZZ        -0.01394  -0.04487  -0.03951  -0.02691   0.00295
  28        4XY        -0.00540   0.06375   0.00858   0.01868  -0.02636
  29        4XZ        -0.00278  -0.03907  -0.01975  -0.02280  -0.02702
  30        4YZ         0.03462   0.10436   0.03411  -0.03372  -0.05740
  31 3   H  1S         -0.04850  -0.26519  -0.32413  -0.38778  -0.09876
  32        2S         -0.05895  -0.37334  -0.41934  -0.37309   0.14902
  33 4   H  1S          0.01687   0.16827  -0.51085  -0.50700   0.49001
  34        2S          0.15435   0.71071   0.12524  -0.05836  -0.76890
  35 5   H  1S          0.10435   0.30787   0.00363  -0.27576  -0.70428
  36        2S         -0.17313  -0.55074  -0.11016   0.25991   1.37686
  37 6   H  1S         -0.14664  -0.42749  -0.22813  -0.11050  -0.10665
  38        2S          0.11055   0.22049   0.38727   0.28076   0.06401
                          21        22        23        24        25
                           V         V         V         V         V
     Eigenvalues --     0.53283   0.54730   0.63029   0.71356   0.82356
   1 1   C  1S         -0.00838  -0.01093   0.01139   0.00856   0.02351
   2        2S          0.02127  -0.75338  -1.15239  -0.53695   0.50643
   3        2PX        -0.19664   0.05644  -0.00541   0.07299  -0.01968
   4        2PY         0.13121   0.04746  -0.36315  -0.36791   0.08547
   5        2PZ        -0.67052   0.34073  -0.33999   0.01171  -0.03609
   6        3S          0.50672   1.77193   2.57052   1.26542  -2.49199
   7        3PX         0.53957  -0.07648   0.19565  -0.43060  -0.35667
   8        3PY        -0.77265  -0.13716   0.43265   0.80692   1.42053
   9        3PZ         1.78027  -0.30983   1.11064  -0.79923  -0.70116
  10        4XX         0.00356   0.01572  -0.09150  -0.05793  -0.05031
  11        4YY         0.07478  -0.03275  -0.06100  -0.03076   0.02365
  12        4ZZ        -0.05299  -0.08849   0.01486   0.03005   0.00245
  13        4XY         0.01527  -0.01544   0.00965  -0.02875   0.06809
  14        4XZ        -0.02777  -0.00007   0.01357   0.01807  -0.03150
  15        4YZ         0.03597  -0.14268   0.03664   0.13008   0.16588
  16 2   N  1S          0.01252   0.02497  -0.00978  -0.00364  -0.04022
  17        2S          0.12289  -0.39267  -0.23100   0.07398  -1.26719
  18        2PX        -0.23801  -0.25141   0.15149  -0.28321   0.07560
  19        2PY         0.24381   0.26191   0.12347  -0.07180  -0.35416
  20        2PZ        -0.20131  -0.29103   0.32175  -0.62566   0.05257
  21        3S         -0.84249   0.51674   0.10786   0.31697   3.44589
  22        3PX         0.36992   0.45241  -0.19932   0.55987  -0.47768
  23        3PY        -0.82559  -0.76132  -0.64645   0.42704   1.91875
  24        3PZ         0.19994   0.53870  -0.56463   1.28729  -0.53543
  25        4XX         0.07144  -0.05737   0.02024  -0.04613  -0.18071
  26        4YY        -0.04876  -0.03798  -0.13806   0.03073  -0.38627
  27        4ZZ         0.03065  -0.07211  -0.06127   0.06765  -0.04431
  28        4XY        -0.06300  -0.03409   0.01668   0.05211  -0.01370
  29        4XZ         0.01949   0.02845  -0.04356   0.03897   0.13904
  30        4YZ        -0.11067  -0.00306  -0.01122   0.01052  -0.01327
  31 3   H  1S          0.09313  -0.56374   0.56904   0.59195   0.18205
  32        2S         -0.87337   0.39040  -1.76132  -0.87128   0.02181
  33 4   H  1S         -0.37274   0.38043   0.51533  -0.34344  -0.05575
  34        2S          1.46839  -1.00995  -0.53621  -0.62263  -0.15074
  35 5   H  1S         -0.52430   0.07865  -0.18769   0.29983   0.22130
  36        2S          0.70086  -0.11686  -0.35016   0.43671  -0.09868
  37 6   H  1S          0.53862   0.54328  -0.10250  -0.06662   0.45102
  38        2S         -1.01842  -1.20104   0.16547  -0.55833  -0.15527
                          26        27        28        29        30
                           V         V         V         V         V
     Eigenvalues --     0.87023   1.13886   1.31261   1.44172   1.46122
   1 1   C  1S          0.00889   0.00094   0.00139   0.00891  -0.00368
   2        2S          0.57259   0.08799   0.08629   0.10771  -0.08200
   3        2PX         0.06829   0.10784   0.01521  -0.03097  -0.03448
   4        2PY        -0.20932  -0.08836  -0.03986  -0.00387   0.01764
   5        2PZ         0.18180   0.02447   0.02695  -0.04669  -0.06589
   6        3S         -0.50211  -0.00487  -0.05207  -0.87920  -0.16905
   7        3PX        -0.16227  -0.11418  -0.01856  -0.19245  -0.08316
   8        3PY         0.05635   0.13485  -0.04080   0.86569   0.64611
   9        3PZ        -0.41586  -0.28691  -0.07487  -0.52701  -0.10520
  10        4XX         0.01785  -0.25666   0.19936  -0.05522  -0.07665
  11        4YY         0.07629   0.06367   0.06728  -0.47765  -0.21728
  12        4ZZ        -0.01489   0.20534  -0.26168   0.50413   0.26388
  13        4XY        -0.11016   0.51987   0.33629  -0.28603  -0.01146
  14        4XZ        -0.00500  -0.15516   0.69860  -0.06608   0.59454
  15        4YZ         0.02797  -0.20925   0.05196  -0.24026  -0.08435
  16 2   N  1S         -0.05164  -0.01223  -0.00574  -0.01373  -0.01041
  17        2S         -0.84805  -0.09045  -0.04325  -0.26387  -0.25079
  18        2PX        -0.14194  -0.02601  -0.01535   0.03455   0.03913
  19        2PY         0.43296   0.08629   0.06235  -0.06232  -0.03540
  20        2PZ        -0.11624  -0.08553  -0.01693   0.01487   0.04544
  21        3S          2.30053   0.42410   0.16326   1.00020   0.72616
  22        3PX         0.52138   0.23240   0.07742  -0.40211  -0.29437
  23        3PY        -1.47747  -0.21322  -0.22254   0.86054   0.40508
  24        3PZ         0.54677   0.22516   0.07843  -0.46896  -0.41791
  25        4XX        -0.09303   0.23841   0.29817   0.32554  -0.52393
  26        4YY        -0.16440  -0.10402   0.00547   0.23208   0.20156
  27        4ZZ        -0.22963  -0.18667  -0.32556  -0.61444   0.26248
  28        4XY         0.06544  -0.51223   0.19276   0.26796  -0.18449
  29        4XZ        -0.23773   0.01990   0.34490   0.05984  -0.38838
  30        4YZ        -0.11371   0.28183  -0.00085   0.21342   0.31331
  31 3   H  1S          0.00030   0.06587   0.02512   0.12737  -0.03966
  32        2S          0.41610   0.06347   0.08903   0.04895  -0.19282
  33 4   H  1S         -0.05624  -0.10509   0.00069  -0.33528  -0.30085
  34        2S         -0.07204  -0.12973  -0.01450  -0.17974  -0.08080
  35 5   H  1S         -0.54347  -0.05556  -0.07795  -0.14533  -0.24867
  36        2S         -0.24544   0.00319  -0.03394   0.07878   0.01917
  37 6   H  1S         -0.65455  -0.19648  -0.10258   0.41284   0.26201
  38        2S         -0.86709  -0.18344  -0.09105   0.14685   0.08797
                          31        32        33        34        35
                           V         V         V         V         V
     Eigenvalues --     1.55731   1.65646   1.85390   1.87706   2.07776
   1 1   C  1S         -0.00050   0.02418  -0.04555  -0.02244   0.01103
   2        2S         -0.42809   0.10925  -0.15868  -0.03511   0.13742
   3        2PX        -0.06119  -0.01421   0.01694   0.03214  -0.01699
   4        2PY         0.25914   0.06158  -0.00094  -0.04036   0.01492
   5        2PZ        -0.11179   0.00220   0.09326   0.05594   0.01965
   6        3S          0.41174  -1.05598   0.99446   0.63419  -0.51190
   7        3PX         0.00387  -0.13661   0.04881   0.31181  -0.07559
   8        3PY        -0.19648   0.31089  -0.02903  -0.26117   0.08508
   9        3PZ         0.00400  -0.59559   0.61671   0.25081  -0.14250
  10        4XX        -0.51468   0.39395  -0.71946  -0.00378  -0.00124
  11        4YY         0.63712  -0.13734   0.00229   0.01139   0.19764
  12        4ZZ        -0.17248  -0.23024   0.67110  -0.02835  -0.17896
  13        4XY        -0.17600   0.04043   0.16431  -0.63310   0.30589
  14        4XZ         0.08964   0.08513   0.18291   0.18698  -0.25739
  15        4YZ        -0.08340  -0.00611   0.38702   0.52885   0.70049
  16 2   N  1S          0.01930   0.01293   0.00666   0.00202  -0.00562
  17        2S         -0.24757   0.14451   0.34602   0.17317   0.05360
  18        2PX         0.05811   0.01573  -0.03192   0.03099  -0.03126
  19        2PY        -0.29935  -0.16917   0.06536   0.07337   0.04499
  20        2PZ         0.06140  -0.03957   0.00148  -0.01990  -0.04320
  21        3S          0.01115  -0.08851  -0.81558  -0.49959   0.04839
  22        3PX         0.01010  -0.28099   0.14386  -0.10776  -0.07034
  23        3PY         0.33030   1.25805  -0.28823  -0.54392   0.41928
  24        3PZ         0.08195  -0.08305  -0.04313   0.23676  -0.05823
  25        4XX        -0.07405   0.48273   0.22451   0.33242  -0.12358
  26        4YY         0.49870  -0.14234  -0.29961  -0.23181   0.46383
  27        4ZZ        -0.44380  -0.25827   0.08959  -0.11546  -0.33681
  28        4XY        -0.15367  -0.18647   0.21784  -0.58106   0.30496
  29        4XZ        -0.06293  -0.72034  -0.15743   0.19901  -0.31243
  30        4YZ        -0.22244  -0.26091  -0.37165   0.29346   0.55365
  31 3   H  1S          0.04570   0.27432  -0.79628  -0.35034  -0.24200
  32        2S         -0.16004   0.25365  -0.13743  -0.00564   0.24183
  33 4   H  1S         -0.20393   0.03557  -0.00439   0.12230   0.37975
  34        2S          0.06767  -0.15911   0.03596   0.02815  -0.17670
  35 5   H  1S          0.10680   0.59491   0.25056  -0.00200  -0.22014
  36        2S          0.00687   0.11352  -0.07244  -0.06692   0.24302
  37 6   H  1S         -0.14629   0.43282   0.04798  -0.14850   0.50117
  38        2S          0.10994   0.28983   0.02942  -0.05243  -0.10433
                          36        37        38
                           V         V         V
     Eigenvalues --     2.37915   3.30254   3.80807
   1 1   C  1S          0.09627  -0.13489  -0.43203
   2        2S         -0.19566   0.97287   2.93041
   3        2PX        -0.06763   0.02255  -0.02785
   4        2PY         0.38287  -0.11027   0.09339
   5        2PZ        -0.06068   0.01878  -0.07426
   6        3S         -1.66452  -0.28220   1.49699
   7        3PX        -0.31297  -0.15171  -0.01321
   8        3PY         1.11867   0.54578   0.16071
   9        3PZ        -0.60903  -0.25510   0.09655
  10        4XX         0.53877  -0.52375  -1.69563
  11        4YY        -0.64343  -0.39060  -1.92530
  12        4ZZ         0.45886  -0.54700  -1.72042
  13        4XY         0.29611  -0.04797   0.06379
  14        4XZ        -0.10235   0.02147  -0.02494
  15        4YZ         0.47255  -0.13151   0.09655
  16 2   N  1S         -0.10491  -0.43736   0.13176
  17        2S         -0.37551   1.10899  -0.40220
  18        2PX        -0.00073   0.00082  -0.01301
  19        2PY         0.06023  -0.01907   0.06469
  20        2PZ        -0.01118   0.01040  -0.03172
  21        3S          2.25146   2.92535  -0.96930
  22        3PX        -0.28470  -0.06249  -0.03865
  23        3PY         1.19928   0.22210   0.17533
  24        3PZ        -0.37905  -0.12405  -0.01947
  25        4XX        -0.55639  -1.45102   0.39419
  26        4YY         0.58465  -1.34419   0.71227
  27        4ZZ        -0.44590  -1.43745   0.42673
  28        4XY        -0.45731   0.00719  -0.11750
  29        4XZ         0.23241  -0.00707   0.04195
  30        4YZ        -0.62230   0.02294  -0.17107
  31 3   H  1S         -0.08534   0.16325   0.13961
  32        2S          0.21184  -0.16017  -0.47162
  33 4   H  1S          0.12449  -0.02972   0.14037
  34        2S         -0.36021  -0.21000  -0.35043
  35 5   H  1S          0.02904   0.05948   0.03294
  36        2S         -0.02691  -0.31067   0.09951
  37 6   H  1S         -0.37654   0.19485  -0.11066
  38        2S          0.28092  -0.39143   0.25241
     Density Matrix:
                           1         2         3         4         5
   1 1   C  1S          2.05103
   2        2S         -0.07766   0.37259
   3        2PX         0.00376  -0.00605   0.23088
   4        2PY        -0.03011   0.05806  -0.01975   0.34476
   5        2PZ         0.00366  -0.00754   0.06659   0.05350   0.49017
   6        3S         -0.16004   0.30463  -0.02379   0.11785  -0.04808
   7        3PX         0.00573  -0.01168   0.13153   0.00704   0.02788
   8        3PY        -0.02891   0.05935   0.00664   0.10556   0.01478
   9        3PZ         0.01056  -0.02680   0.01703   0.03530   0.21030
  10        4XX        -0.01131  -0.01601   0.00375  -0.00212  -0.00516
  11        4YY        -0.01963   0.00368   0.00048  -0.01376  -0.00013
  12        4ZZ        -0.02019   0.00391  -0.00406   0.01323   0.00795
  13        4XY         0.00258  -0.00611  -0.00896   0.00374   0.00738
  14        4XZ        -0.00280   0.00640   0.00237   0.00145  -0.00425
  15        4YZ         0.00162  -0.00398   0.01007   0.01719   0.02575
  16 2   N  1S          0.01109  -0.02348  -0.00725   0.06787  -0.00729
  17        2S         -0.02240   0.04652   0.01649  -0.15794   0.01699
  18        2PX         0.00906  -0.01862   0.28611   0.10155  -0.07469
  19        2PY        -0.05600   0.12671   0.08476  -0.25697   0.03437
  20        2PZ         0.02247  -0.04930  -0.15316   0.06116   0.03187
  21        3S         -0.01284   0.03416   0.00247  -0.17972  -0.02083
  22        3PX         0.00368  -0.00675   0.20546   0.06090  -0.04649
  23        3PY        -0.03101   0.07004   0.04718  -0.14143  -0.00326
  24        3PZ         0.01145  -0.02462  -0.11144   0.02202   0.01422
  25        4XX         0.00101  -0.00265  -0.00164   0.00200  -0.00168
  26        4YY        -0.00436   0.00586   0.00259   0.00535   0.00990
  27        4ZZ         0.00062  -0.00229  -0.00064   0.00112  -0.00565
  28        4XY         0.00129  -0.00188   0.00336   0.00029   0.00061
  29        4XZ        -0.00009  -0.00020  -0.00374  -0.00076  -0.00247
  30        4YZ         0.00256  -0.00445  -0.00010   0.00638   0.00955
  31 3   H  1S         -0.05924   0.12512   0.03657   0.16093   0.24627
  32        2S         -0.00136   0.01244   0.02984   0.08508   0.15212
  33 4   H  1S         -0.06640   0.14119  -0.07933   0.07969  -0.22106
  34        2S         -0.01351   0.03516  -0.05500   0.02099  -0.14635
  35 5   H  1S          0.00724  -0.01927  -0.00631   0.05425   0.02129
  36        2S          0.00255  -0.00663   0.00560   0.05326   0.03743
  37 6   H  1S          0.01535  -0.03560  -0.00636   0.07323  -0.02729
  38        2S          0.00109  -0.00457  -0.00719   0.03281  -0.02572
                           6         7         8         9        10
   6        3S          0.27463
   7        3PX        -0.01475   0.07694
   8        3PY         0.06837   0.00832   0.03856
   9        3PZ        -0.03599   0.00717   0.00687   0.09362
  10        4XX        -0.01188   0.00265  -0.00217  -0.00148   0.00095
  11        4YY         0.00060  -0.00057  -0.00317  -0.00069  -0.00012
  12        4ZZ         0.00613  -0.00207   0.00397   0.00364  -0.00014
  13        4XY        -0.00441  -0.00491  -0.00020   0.00432  -0.00002
  14        4XZ         0.00571   0.00128   0.00128  -0.00249  -0.00013
  15        4YZ        -0.00220   0.00665   0.00510   0.01209   0.00001
  16 2   N  1S          0.00236   0.00250   0.01167   0.00163   0.00146
  17        2S         -0.01273  -0.00603  -0.02782  -0.00399  -0.00288
  18        2PX         0.00330   0.17169   0.04366  -0.04603   0.00866
  19        2PY         0.04145   0.02534  -0.06484  -0.01657  -0.00412
  20        2PZ        -0.02867  -0.09523  -0.00352   0.01162   0.00094
  21        3S         -0.02374  -0.01415  -0.03538  -0.01947  -0.00226
  22        3PX         0.00478   0.12290   0.02873  -0.02991   0.00565
  23        3PY         0.02557   0.01434  -0.03639  -0.01976  -0.00179
  24        3PZ        -0.01510  -0.06952  -0.00736   0.00459   0.00002
  25        4XX        -0.00118  -0.00078  -0.00024  -0.00064   0.00016
  26        4YY         0.00426   0.00146   0.00314   0.00437  -0.00038
  27        4ZZ        -0.00089  -0.00007   0.00001  -0.00222   0.00018
  28        4XY        -0.00126   0.00233  -0.00005   0.00060   0.00009
  29        4XZ        -0.00032  -0.00234  -0.00016  -0.00104  -0.00002
  30        4YZ        -0.00281   0.00080   0.00154   0.00557  -0.00004
  31 3   H  1S          0.10791   0.02070   0.06202   0.10314  -0.00746
  32        2S          0.01176   0.01863   0.02734   0.06800  -0.00194
  33 4   H  1S          0.15519  -0.03985   0.03634  -0.09862  -0.00383
  34        2S          0.04928  -0.02824   0.00770  -0.06285  -0.00025
  35 5   H  1S         -0.00743   0.00437   0.02165   0.02229  -0.00074
  36        2S          0.00313   0.00965   0.01864   0.02505  -0.00081
  37 6   H  1S         -0.01604  -0.00245   0.02021  -0.01127   0.00265
  38        2S          0.00518  -0.00382   0.00761  -0.01270   0.00106
                          11        12        13        14        15
  11        4YY         0.00104
  12        4ZZ        -0.00041   0.00094
  13        4XY        -0.00017   0.00032   0.00072
  14        4XZ        -0.00005   0.00005  -0.00033   0.00024
  15        4YZ        -0.00051   0.00056   0.00038  -0.00026   0.00271
  16 2   N  1S         -0.00435   0.00224   0.00176  -0.00044   0.00409
  17        2S          0.01056  -0.00496  -0.00414   0.00099  -0.00983
  18        2PX        -0.00873  -0.00081  -0.01444   0.00667   0.00696
  19        2PY         0.00898  -0.00608  -0.00801   0.00334  -0.01385
  20        2PZ        -0.01084   0.01146   0.00547   0.00121  -0.01285
  21        3S          0.01131  -0.00621  -0.00428   0.00091  -0.01277
  22        3PX        -0.00510  -0.00127  -0.01018   0.00446   0.00554
  23        3PY         0.00419  -0.00325  -0.00504   0.00235  -0.00929
  24        3PZ        -0.00592   0.00680   0.00384   0.00056  -0.00947
  25        4XX        -0.00035   0.00017   0.00009   0.00001  -0.00014
  26        4YY         0.00029   0.00017   0.00002  -0.00003   0.00086
  27        4ZZ        -0.00015  -0.00003  -0.00004   0.00003  -0.00019
  28        4XY         0.00006  -0.00021   0.00001  -0.00010   0.00053
  29        4XZ         0.00004   0.00006   0.00004   0.00003  -0.00046
  30        4YZ         0.00009  -0.00003   0.00052  -0.00039   0.00148
  31 3   H  1S         -0.00308   0.00909   0.00250   0.00036   0.01797
  32        2S         -0.00226   0.00420   0.00241  -0.00099   0.01225
  33 4   H  1S         -0.00219   0.00227  -0.00300   0.00420  -0.01146
  34        2S         -0.00141   0.00019  -0.00117   0.00176  -0.00856
  35 5   H  1S          0.00292  -0.00153   0.00276  -0.00258   0.00971
  36        2S          0.00113  -0.00038   0.00224  -0.00189   0.00926
  37 6   H  1S         -0.00565   0.00422  -0.00095   0.00180  -0.00304
  38        2S         -0.00345   0.00237  -0.00069   0.00129  -0.00280
                          16        17        18        19        20
  16 2   N  1S          2.05693
  17        2S         -0.11948   0.41212
  18        2PX        -0.00008   0.00020   0.54708
  19        2PY         0.00000   0.00915   0.01207   0.44695
  20        2PZ        -0.01220   0.03299  -0.01986   0.02657   0.55575
  21        3S         -0.19005   0.43332  -0.01120   0.00181   0.03605
  22        3PX         0.00150  -0.00386   0.37068   0.01664  -0.04717
  23        3PY         0.00531  -0.00581   0.02518   0.25939   0.03715
  24        3PZ        -0.00642   0.01907  -0.04389   0.03092   0.34678
  25        4XX        -0.01185  -0.00931   0.00102   0.00280   0.00727
  26        4YY        -0.02298   0.01421   0.00011  -0.01154  -0.00830
  27        4ZZ        -0.01483  -0.00295   0.00231  -0.00212   0.00100
  28        4XY         0.00398  -0.00877  -0.00038  -0.00010  -0.01300
  29        4XZ        -0.00450   0.00985  -0.00132  -0.00394   0.00795
  30        4YZ         0.00386  -0.00879  -0.01018  -0.01304  -0.02056
  31 3   H  1S          0.01379  -0.03460   0.00494  -0.03930  -0.01037
  32        2S          0.01182  -0.02828   0.00715  -0.04841  -0.01936
  33 4   H  1S          0.01019  -0.02590   0.00828  -0.04103   0.03847
  34        2S          0.00466  -0.01110  -0.00131  -0.02588   0.04412
  35 5   H  1S         -0.03113   0.06258  -0.06390  -0.19634  -0.19664
  36        2S          0.00609  -0.01913  -0.04510  -0.11378  -0.15498
  37 6   H  1S         -0.05647   0.12494   0.12877  -0.10276   0.20452
  38        2S         -0.00335   0.00621   0.05874  -0.00550   0.11214
                          21        22        23        24        25
  21        3S          0.46208
  22        3PX        -0.01248   0.25350
  23        3PY        -0.00925   0.02041   0.15338
  24        3PZ         0.02218  -0.05047   0.03091   0.21898
  25        4XX        -0.00916   0.00033   0.00231   0.00462   0.00046
  26        4YY         0.01449   0.00037  -0.00794  -0.00585  -0.00047
  27        4ZZ        -0.00212   0.00140  -0.00080   0.00054   0.00022
  28        4XY        -0.00931   0.00060  -0.00042  -0.00805   0.00002
  29        4XZ         0.01076  -0.00155  -0.00215   0.00491  -0.00013
  30        4YZ        -0.00968  -0.00575  -0.00895  -0.01281  -0.00022
  31 3   H  1S         -0.06409   0.00616  -0.03313  -0.01360  -0.00130
  32        2S         -0.04411   0.00683  -0.03478  -0.01760  -0.00067
  33 4   H  1S         -0.01563   0.00021  -0.01115   0.02730   0.00094
  34        2S         -0.00091  -0.00568  -0.00621   0.03006   0.00105
  35 5   H  1S          0.06715  -0.03544  -0.12739  -0.12601  -0.00567
  36        2S         -0.02220  -0.02286  -0.07540  -0.09842  -0.00277
  37 6   H  1S          0.13261   0.07115  -0.04930   0.11575  -0.00021
  38        2S          0.00715   0.03234   0.00445   0.06648   0.00159
                          26        27        28        29        30
  26        4YY         0.00151
  27        4ZZ        -0.00007   0.00023
  28        4XY        -0.00014   0.00001   0.00048
  29        4XZ         0.00029   0.00001  -0.00039   0.00040
  30        4YZ         0.00052  -0.00009   0.00067  -0.00040   0.00167
  31 3   H  1S          0.00883  -0.00297   0.00057  -0.00194   0.00651
  32        2S          0.00480  -0.00147   0.00116  -0.00141   0.00560
  33 4   H  1S         -0.00206   0.00219  -0.00219   0.00196  -0.00571
  34        2S         -0.00280   0.00169  -0.00157   0.00161  -0.00414
  35 5   H  1S          0.01146  -0.00060   0.00302   0.00069   0.01292
  36        2S          0.00599  -0.00048   0.00380  -0.00158   0.01066
  37 6   H  1S          0.00393   0.00098  -0.00748   0.00655  -0.00967
  38        2S         -0.00167   0.00074  -0.00287   0.00176  -0.00563
                          31        32        33        34        35
  31 3   H  1S          0.20997
  32        2S          0.10681   0.06423
  33 4   H  1S         -0.03860  -0.05132   0.18082
  34        2S         -0.05468  -0.04195   0.09394   0.05639
  35 5   H  1S          0.03451   0.03312  -0.01471  -0.01624   0.17326
  36        2S          0.04296   0.03378  -0.01754  -0.01871   0.10737
  37 6   H  1S         -0.00683  -0.00502   0.03082   0.02573  -0.02111
  38        2S         -0.00758  -0.00830   0.02549   0.01812  -0.04418
                          36        37        38
  36        2S          0.07814
  37 6   H  1S         -0.04589   0.17205
  38        2S         -0.03609   0.06101   0.03161
    Full Mulliken population analysis:
                           1         2         3         4         5
   1 1   C  1S          2.05103
   2        2S         -0.01701   0.37259
   3        2PX         0.00000   0.00000   0.23088
   4        2PY         0.00000   0.00000   0.00000   0.34476
   5        2PZ         0.00000   0.00000   0.00000   0.00000   0.49017
   6        3S         -0.02949   0.24744   0.00000   0.00000   0.00000
   7        3PX         0.00000   0.00000   0.07494   0.00000   0.00000
   8        3PY         0.00000   0.00000   0.00000   0.06014   0.00000
   9        3PZ         0.00000   0.00000   0.00000   0.00000   0.11982
  10        4XX        -0.00089  -0.01137   0.00000   0.00000   0.00000
  11        4YY        -0.00155   0.00261   0.00000   0.00000   0.00000
  12        4ZZ        -0.00160   0.00277   0.00000   0.00000   0.00000
  13        4XY         0.00000   0.00000   0.00000   0.00000   0.00000
  14        4XZ         0.00000   0.00000   0.00000   0.00000   0.00000
  15        4YZ         0.00000   0.00000   0.00000   0.00000   0.00000
  16 2   N  1S          0.00000  -0.00013  -0.00002  -0.00089  -0.00003
  17        2S         -0.00005   0.00387   0.00053   0.02086   0.00079
  18        2PX        -0.00001   0.00051   0.00846   0.00485   0.00126
  19        2PY        -0.00032   0.01449   0.00405   0.04021   0.00239
  20        2PZ        -0.00005   0.00199   0.00257   0.00426   0.00053
  21        3S         -0.00051   0.00860   0.00013   0.03906  -0.00159
  22        3PX        -0.00008   0.00071   0.03170   0.00579   0.00156
  23        3PY        -0.00287   0.03049   0.00449   0.03063  -0.00045
  24        3PZ        -0.00037   0.00378   0.00373   0.00305   0.00183
  25        4XX         0.00000  -0.00016   0.00001  -0.00019  -0.00006
  26        4YY        -0.00007   0.00117   0.00022  -0.00129   0.00124
  27        4ZZ         0.00000  -0.00016  -0.00002  -0.00013   0.00000
  28        4XY        -0.00001   0.00012   0.00024   0.00003  -0.00003
  29        4XZ         0.00000   0.00000   0.00009   0.00003   0.00002
  30        4YZ        -0.00002   0.00040   0.00000   0.00086   0.00037
  31 3   H  1S         -0.00203   0.03503   0.00087   0.03408   0.07618
  32        2S         -0.00013   0.00598   0.00050   0.01275   0.03331
  33 4   H  1S         -0.00118   0.02801   0.00634   0.01437   0.04637
  34        2S         -0.00105   0.01466   0.00396   0.00341   0.02765
  35 5   H  1S          0.00000  -0.00004   0.00000  -0.00024  -0.00001
  36        2S          0.00002  -0.00040   0.00002  -0.00368  -0.00015
  37 6   H  1S          0.00000  -0.00004  -0.00001  -0.00016  -0.00003
  38        2S          0.00001  -0.00021  -0.00013  -0.00154  -0.00066
                           6         7         8         9        10
   6        3S          0.27463
   7        3PX         0.00000   0.07694
   8        3PY         0.00000   0.00000   0.03856
   9        3PZ         0.00000   0.00000   0.00000   0.09362
  10        4XX        -0.00748   0.00000   0.00000   0.00000   0.00095
  11        4YY         0.00038   0.00000   0.00000   0.00000  -0.00004
  12        4ZZ         0.00386   0.00000   0.00000   0.00000  -0.00005
  13        4XY         0.00000   0.00000   0.00000   0.00000   0.00000
  14        4XZ         0.00000   0.00000   0.00000   0.00000   0.00000
  15        4YZ         0.00000   0.00000   0.00000   0.00000   0.00000
  16 2   N  1S          0.00009   0.00005  -0.00092   0.00005   0.00000
  17        2S         -0.00285  -0.00058   0.01103  -0.00056  -0.00009
  18        2PX        -0.00012   0.02018   0.00280   0.00104   0.00006
  19        2PY         0.00603   0.00162   0.00856  -0.00155  -0.00022
  20        2PZ         0.00147   0.00215  -0.00033   0.00116  -0.00002
  21        3S         -0.01070  -0.00188   0.01942  -0.00376  -0.00039
  22        3PX        -0.00057   0.05073   0.00414   0.00152  -0.00022
  23        3PY         0.01252   0.00207   0.00541  -0.00415  -0.00059
  24        3PZ         0.00260   0.00353  -0.00155   0.00171   0.00000
  25        4XX        -0.00024  -0.00004   0.00009  -0.00008   0.00000
  26        4YY         0.00118   0.00018  -0.00110   0.00077  -0.00004
  27        4ZZ        -0.00018  -0.00001   0.00000  -0.00017   0.00000
  28        4XY         0.00004   0.00027   0.00000  -0.00001   0.00000
  29        4XZ         0.00000   0.00009   0.00000   0.00002   0.00000
  30        4YZ         0.00014  -0.00002   0.00007   0.00054   0.00000
  31 3   H  1S          0.04111   0.00067   0.01803   0.04380  -0.00091
  32        2S          0.00834   0.00068   0.00896   0.03254  -0.00069
  33 4   H  1S          0.05046   0.00550   0.01132   0.03575  -0.00039
  34        2S          0.03174   0.00468   0.00288   0.02734  -0.00008
  35 5   H  1S         -0.00028   0.00002  -0.00247  -0.00015   0.00000
  36        2S          0.00055   0.00015  -0.00598  -0.00047  -0.00003
  37 6   H  1S         -0.00047  -0.00007  -0.00154  -0.00047   0.00000
  38        2S          0.00077  -0.00036  -0.00180  -0.00165   0.00003
                          11        12        13        14        15
  11        4YY         0.00104
  12        4ZZ        -0.00014   0.00094
  13        4XY         0.00000   0.00000   0.00072
  14        4XZ         0.00000   0.00000   0.00000   0.00024
  15        4YZ         0.00000   0.00000   0.00000   0.00000   0.00271
  16 2   N  1S         -0.00005   0.00000  -0.00001   0.00000  -0.00003
  17        2S          0.00161  -0.00020   0.00022   0.00002   0.00077
  18        2PX         0.00057   0.00001   0.00066   0.00011   0.00024
  19        2PY         0.00170  -0.00041   0.00064   0.00011   0.00160
  20        2PZ         0.00103   0.00005   0.00018   0.00001   0.00025
  21        3S          0.00303  -0.00110   0.00019   0.00001   0.00081
  22        3PX         0.00064   0.00011   0.00128   0.00020   0.00016
  23        3PY         0.00147  -0.00112   0.00025   0.00007   0.00066
  24        3PZ         0.00108  -0.00042   0.00011   0.00001   0.00098
  25        4XX        -0.00004   0.00000   0.00000   0.00000   0.00001
  26        4YY         0.00008   0.00002   0.00000   0.00000  -0.00016
  27        4ZZ        -0.00002   0.00000   0.00000   0.00000   0.00000
  28        4XY        -0.00001   0.00001   0.00000   0.00000   0.00004
  29        4XZ         0.00000   0.00000   0.00000   0.00000  -0.00001
  30        4YZ        -0.00002   0.00000   0.00004  -0.00001  -0.00007
  31 3   H  1S         -0.00071   0.00321   0.00005   0.00001   0.00495
  32        2S         -0.00086   0.00172   0.00001  -0.00001   0.00079
  33 4   H  1S         -0.00041   0.00051   0.00025   0.00040   0.00249
  34        2S         -0.00048   0.00007   0.00003   0.00005   0.00059
  35 5   H  1S          0.00001   0.00000   0.00000   0.00000   0.00000
  36        2S          0.00009  -0.00001  -0.00001   0.00000   0.00004
  37 6   H  1S         -0.00001   0.00000   0.00000   0.00000   0.00000
  38        2S         -0.00018   0.00008   0.00001   0.00001   0.00006
                          16        17        18        19        20
  16 2   N  1S          2.05693
  17        2S         -0.02655   0.41212
  18        2PX         0.00000   0.00000   0.54708
  19        2PY         0.00000   0.00000   0.00000   0.44695
  20        2PZ         0.00000   0.00000   0.00000   0.00000   0.55575
  21        3S         -0.03266   0.33605   0.00000   0.00000   0.00000
  22        3PX         0.00000   0.00000   0.19249   0.00000   0.00000
  23        3PY         0.00000   0.00000   0.00000   0.13470   0.00000
  24        3PZ         0.00000   0.00000   0.00000   0.00000   0.18008
  25        4XX        -0.00060  -0.00592   0.00000   0.00000   0.00000
  26        4YY        -0.00116   0.00904   0.00000   0.00000   0.00000
  27        4ZZ        -0.00075  -0.00188   0.00000   0.00000   0.00000
  28        4XY         0.00000   0.00000   0.00000   0.00000   0.00000
  29        4XZ         0.00000   0.00000   0.00000   0.00000   0.00000
  30        4YZ         0.00000   0.00000   0.00000   0.00000   0.00000
  31 3   H  1S          0.00000  -0.00015  -0.00001  -0.00034  -0.00002
  32        2S          0.00015  -0.00257  -0.00008  -0.00386  -0.00030
  33 4   H  1S          0.00000   0.00000   0.00000  -0.00001  -0.00001
  34        2S          0.00001  -0.00027   0.00001  -0.00057  -0.00062
  35 5   H  1S         -0.00041   0.00898   0.00236   0.03339   0.02091
  36        2S          0.00037  -0.00651   0.00153   0.01778   0.01515
  37 6   H  1S         -0.00145   0.02712   0.01698   0.01881   0.03534
  38        2S         -0.00025   0.00246   0.00529   0.00069   0.01323
                          21        22        23        24        25
  21        3S          0.46208
  22        3PX         0.00000   0.25350
  23        3PY         0.00000   0.00000   0.15338
  24        3PZ         0.00000   0.00000   0.00000   0.21898
  25        4XX        -0.00614   0.00000   0.00000   0.00000   0.00046
  26        4YY         0.00971   0.00000   0.00000   0.00000  -0.00016
  27        4ZZ        -0.00142   0.00000   0.00000   0.00000   0.00007
  28        4XY         0.00000   0.00000   0.00000   0.00000   0.00000
  29        4XZ         0.00000   0.00000   0.00000   0.00000   0.00000
  30        4YZ         0.00000   0.00000   0.00000   0.00000   0.00000
  31 3   H  1S         -0.00391  -0.00014  -0.00541  -0.00043   0.00000
  32        2S         -0.01065  -0.00034  -0.01274  -0.00126  -0.00005
  33 4   H  1S         -0.00019   0.00000  -0.00039  -0.00060   0.00000
  34        2S         -0.00009   0.00028  -0.00098  -0.00302   0.00002
  35 5   H  1S          0.02082   0.00325   0.05395   0.03337  -0.00050
  36        2S         -0.01342   0.00230   0.03495   0.02853  -0.00085
  37 6   H  1S          0.04969   0.01795   0.01726   0.03825  -0.00004
  38        2S          0.00481   0.00821  -0.00157   0.02211   0.00059
                          26        27        28        29        30
  26        4YY         0.00151
  27        4ZZ        -0.00002   0.00023
  28        4XY         0.00000   0.00000   0.00048
  29        4XZ         0.00000   0.00000   0.00000   0.00040
  30        4YZ         0.00000   0.00000   0.00000   0.00000   0.00167
  31 3   H  1S          0.00018  -0.00001   0.00000   0.00000   0.00004
  32        2S          0.00068  -0.00012  -0.00002   0.00000   0.00012
  33 4   H  1S          0.00000   0.00000   0.00000   0.00000   0.00000
  34        2S         -0.00011   0.00005   0.00002   0.00001   0.00009
  35 5   H  1S          0.00309  -0.00009   0.00022   0.00003   0.00267
  36        2S          0.00218  -0.00016   0.00009  -0.00002   0.00070
  37 6   H  1S          0.00103   0.00024   0.00132   0.00109   0.00224
  38        2S         -0.00065   0.00028   0.00012   0.00007   0.00031
                          31        32        33        34        35
  31 3   H  1S          0.20997
  32        2S          0.07031   0.06423
  33 4   H  1S         -0.00057  -0.00701   0.18082
  34        2S         -0.00747  -0.01596   0.06184   0.05639
  35 5   H  1S          0.00000   0.00018   0.00000  -0.00006   0.17326
  36        2S          0.00023   0.00174  -0.00007  -0.00079   0.07068
  37 6   H  1S          0.00000  -0.00008   0.00000   0.00003  -0.00108
  38        2S         -0.00012  -0.00082   0.00003   0.00034  -0.00986
                          36        37        38
  36        2S          0.07814
  37 6   H  1S         -0.01024   0.17205
  38        2S         -0.01857   0.04016   0.03161
     Gross orbital populations:
                           1
   1 1   C  1S          1.99177
   2        2S          0.74571
   3        2PX         0.37355
   4        2PY         0.61104
   5        2PZ         0.80049
   6        3S          0.63099
   7        3PX         0.24151
   8        3PY         0.17570
   9        3PZ         0.34666
  10        4XX        -0.02243
  11        4YY         0.01084
  12        4ZZ         0.00833
  13        4XY         0.00463
  14        4XZ         0.00124
  15        4YZ         0.01688
  16 2   N  1S          1.99176
  17        2S          0.78729
  18        2PX         0.80625
  19        2PY         0.72644
  20        2PZ         0.83475
  21        3S          0.86602
  22        3PX         0.57518
  23        3PY         0.45203
  24        3PZ         0.53608
  25        4XX        -0.01379
  26        4YY         0.02752
  27        4ZZ        -0.00426
  28        4XY         0.00291
  29        4XZ         0.00184
  30        4YZ         0.01013
  31 3   H  1S          0.51653
  32        2S          0.18545
  33 4   H  1S          0.43365
  34        2S          0.20459
  35 5   H  1S          0.41201
  36        2S          0.19387
  37 6   H  1S          0.42391
  38        2S          0.09292
          Condensed to atoms (all electrons):
               1          2          3          4          5          6
     1  C    4.864486   0.420243   0.358257   0.315272  -0.013009  -0.008342
     2  N    0.420243   6.681298  -0.041230  -0.006373   0.264652   0.281556
     3  H    0.358257  -0.041230   0.414820  -0.031004   0.002152  -0.001013
     4  H    0.315272  -0.006373  -0.031004   0.360885  -0.000927   0.000392
     5  H   -0.013009   0.264652   0.002152  -0.000927   0.392759  -0.039741
     6  H   -0.008342   0.281556  -0.001013   0.000392  -0.039741   0.283980
 Mulliken charges:
               1
     1  C    0.063093
     2  N   -0.600147
     3  H    0.298018
     4  H    0.361755
     5  H    0.394114
     6  H    0.483167
 Sum of Mulliken charges =   1.00000
 Mulliken charges with hydrogens summed into heavy atoms:
               1
     1  C    0.722866
     2  N    0.277134
 Electronic spatial extent (au):  <R**2>=            635.0678
 Charge=              1.0000 electrons
 Dipole moment (field-independent basis, Debye):
    X=            -12.3897    Y=             -5.4249    Z=              6.0432  Tot=             14.8140
 Quadrupole moment (field-independent basis, Debye-Ang):
   XX=             20.2559   YY=              6.4061   ZZ=             -1.5439
   XY=             11.0921   XZ=            -13.5624   YZ=             -9.8249
 Traceless Quadrupole moment (field-independent basis, Debye-Ang):
   XX=             11.8832   YY=             -1.9666   ZZ=             -9.9166
   XY=             11.0921   XZ=            -13.5624   YZ=             -9.8249
 Octapole moment (field-independent basis, Debye-Ang**2):
  XXX=              8.9952  YYY=            -13.9667  ZZZ=            -26.9786  XYY=             -9.9574
  XXY=             -9.3527  XXZ=             14.6501  XZZ=              9.7053  YZZ=             -6.0725
  YYZ=             13.1013  XYZ=             18.6799
 Hexadecapole moment (field-independent basis, Debye-Ang**3):
 XXXX=           -278.4011 YYYY=              1.7781 ZZZZ=           -105.0942 XXXY=            -51.9404
 XXXZ=             52.6388 YYYX=             24.3850 YYYZ=            -23.8061 ZZZX=             80.9511
 ZZZY=             17.5437 XXYY=            -14.2893 XXZZ=            -64.5906 YYZZ=              6.2452
 XXYZ=            -15.3620 YYXZ=            -17.5524 ZZXY=              1.5241
 N-N= 3.351126595313D+01 E-N=-2.817774299980D+02  KE= 9.300757517389D+01
 Orbital energies and kinetic energies (alpha):
                                 1                 2
   1         O               -14.695668         21.967370
   2         O               -10.594350         15.892614
   3         O                -1.141235          1.860593
   4         O                -0.946522          1.475711
   5         O                -0.777407          1.355900
   6         O                -0.719674          1.172470
   7         O                -0.637921          1.300382
   8         O                -0.578405          1.478747
   9         V                -0.365488          1.546965
  10         V                -0.273232          1.787458
  11         V                -0.198067          1.249981
  12         V                -0.124843          1.270431
  13         V                -0.079689          1.008953
  14         V                -0.030316          1.691329
  15         V                 0.248533          1.768175
  16         V                 0.287998          2.007497
  17         V                 0.324571          1.722811
  18         V                 0.443385          2.203413
  19         V                 0.455013          2.149481
  20         V                 0.499811          2.592862
  21         V                 0.532828          2.301265
  22         V                 0.547303          2.366424
  23         V                 0.630286          2.434967
  24         V                 0.713558          2.462904
  25         V                 0.823560          2.249871
  26         V                 0.870232          2.259728
  27         V                 1.138856          2.581838
  28         V                 1.312608          2.734174
  29         V                 1.441723          2.904392
  30         V                 1.461219          2.925066
  31         V                 1.557314          3.306042
  32         V                 1.656462          3.152943
  33         V                 1.853905          3.463927
  34         V                 1.877065          3.416982
  35         V                 2.077763          3.755757
  36         V                 2.379149          4.342898
  37         V                 3.302543          9.464548
  38         V                 3.808065          9.785721
 Total kinetic energy from orbitals= 9.300757517389D+01

 Test job not archived.
 1\1\GINC-EAM\SP\RB3LYP\6-31G(d)\C1H4N1(1+)\DULIKAI\29-Apr-2014\0\\# b3
 lyp/6-31g* scf=(tight,maxcycle=10000) iop(9/40=20) nosymm pop=full\\[0
 ] [0]\\1,1\C,0,-2.767941,-0.2973939,1.0704429\N,0,-2.4275358,-1.706412
 2,1.5665866\H,0,-2.6997252,0.3115252,1.9599427\H,0,-3.1071058,0.467693
 5,0.180481\H,0,-2.6487257,-2.7266677,0.9286491\H,0,-1.9251714,-2.40376
 78,2.2247388\\Version=EM64L-G09RevD.01\HF=-94.8122842\RMSD=7.374e-09\D
 ipole=0.0144679,-0.1244955,-0.1438167\Quadrupole=8.8348669,-1.4621136,
 -7.3727533,8.2466996,-10.0832765,-7.3045669\PG=C01 [X(C1H4N1)]\\@


 MEN HAVE BECOME THE TOOLS OF THEIR TOOLS... THOREAU   
 Job cpu time:       0 days  0 hours  0 minutes  3.5 seconds.
 File lengths (MBytes):  RWF=      5 Int=      0 D2E=      0 Chk=      1 Scr=      1
 Normal termination of Gaussian 09 at Tue Apr 29 21:34:54 2014.
 Initial command:
 /opt/g09_D01_em64t/g09/l1.exe "/tmp/Gau-16921.inp" -scrdir="/tmp/"
 Entering Link 1 = /opt/g09_D01_em64t/g09/l1.exe PID=     16934.
  
 Copyright (c) 1988,1990,1992,1993,1995,1998,2003,2009,2013,
            Gaussian, Inc.  All Rights Reserved.
  
 This is part of the Gaussian(R) 09 program.  It is based on
 the Gaussian(R) 03 system (copyright 2003, Gaussian, Inc.),
 the Gaussian(R) 98 system (copyright 1998, Gaussian, Inc.),
 the Gaussian(R) 94 system (copyright 1995, Gaussian, Inc.),
 the Gaussian 92(TM) system (copyright 1992, Gaussian, Inc.),
 the Gaussian 90(TM) system (copyright 1990, Gaussian, Inc.),
 the Gaussian 88(TM) system (copyright 1988, Gaussian, Inc.),
 the Gaussian 86(TM) system (copyright 1986, Carnegie Mellon
 University), and the Gaussian 82(TM) system (copyright 1983,
 Carnegie Mellon University). Gaussian is a federally registered
 trademark of Gaussian, Inc.
  
 This software contains proprietary and confidential information,
 including trade secrets, belonging to Gaussian, Inc.
  
 This software is provided under written license and may be
 used, copied, transmitted, or stored only in accord with that
 written license.
  
 The following legend is applicable only to US Government
 contracts under FAR:
  
                    RESTRICTED RIGHTS LEGEND
  
 Use, reproduction and disclosure by the US Government is
 subject to restrictions as set forth in subparagraphs (a)
 and (c) of the Commercial Computer Software - Restricted
 Rights clause in FAR 52.227-19.
  
 Gaussian, Inc.
 340 Quinnipiac St., Bldg. 40, Wallingford CT 06492
  
  
 ---------------------------------------------------------------
 Warning -- This program may not be used in any manner that
 competes with the business of Gaussian, Inc. or will provide
 assistance to any competitor of Gaussian, Inc.  The licensee
 of this program is prohibited from giving any competitor of
 Gaussian, Inc. access to this program.  By using this program,
 the user acknowledges that Gaussian, Inc. is engaged in the
 business of creating and licensing software in the field of
 computational chemistry and represents and warrants to the
 licensee that it is not a competitor of Gaussian, Inc. and that
 it will not use this program in any manner prohibited above.
 ---------------------------------------------------------------
  

 Cite this work as:
 Gaussian 09, Revision D.01,
 M. J. Frisch, G. W. Trucks, H. B. Schlegel, G. E. Scuseria, 
 M. A. Robb, J. R. Cheeseman, G. Scalmani, V. Barone, B. Mennucci, 
 G. A. Petersson, H. Nakatsuji, M. Caricato, X. Li, H. P. Hratchian, 
 A. F. Izmaylov, J. Bloino, G. Zheng, J. L. Sonnenberg, M. Hada, 
 M. Ehara, K. Toyota, R. Fukuda, J. Hasegawa, M. Ishida, T. Nakajima, 
 Y. Honda, O. Kitao, H. Nakai, T. Vreven, J. A. Montgomery, Jr., 
 J. E. Peralta, F. Ogliaro, M. Bearpark, J. J. Heyd, E. Brothers, 
 K. N. Kudin, V. N. Staroverov, T. Keith, R. Kobayashi, J. Normand, 
 K. Raghavachari, A. Rendell, J. C. Burant, S. S. Iyengar, J. Tomasi, 
 M. Cossi, N. Rega, J. M. Millam, M. Klene, J. E. Knox, J. B. Cross, 
 V. Bakken, C. Adamo, J. Jaramillo, R. Gomperts, R. E. Stratmann, 
 O. Yazyev, A. J. Austin, R. Cammi, C. Pomelli, J. W. Ochterski, 
 R. L. Martin, K. Morokuma, V. G. Zakrzewski, G. A. Voth, 
 P. Salvador, J. J. Dannenberg, S. Dapprich, A. D. Daniels, 
 O. Farkas, J. B. Foresman, J. V. Ortiz, J. Cioslowski, 
 and D. J. Fox, Gaussian, Inc., Wallingford CT, 2013.
 
 ******************************************
 Gaussian 09:  EM64L-G09RevD.01 24-Apr-2013
                29-Apr-2014 
 ******************************************
 %chk=gaussian.chk
 %mem=1GB
 %nproc=2
 Will use up to    2 processors via shared memory.
 %nproclinda=1
 Will use up to    1 processors via Linda.
 ----------------------------------------------------------------------
 # force b3lyp/ChkBasis scf=(tight,maxcycle=10000) iop(9/40=20) nosymm 
 pop=full geom=AllCheck Guess=Read
 ----------------------------------------------------------------------
 1/10=7,29=7,30=1,38=1/1,3;
 2/12=2,15=1,40=1/2;
 3/5=7,6=2,11=2,14=-4,16=1,25=1,30=1,67=1,71=1,74=-5,116=-2/1,2,3;
 4/5=1/1;
 5/5=2,7=10000,32=2,38=6/2;
 6/7=3,28=1/1;
 7/29=1,30=1/1,2,3,16;
 1/10=7,30=1/3;
 99//99;
 Structure from the checkpoint file:  "gaussian.chk"
 -------
 [0] [0]
 -------
 Charge =  1 Multiplicity = 1
 Z-Matrix found in file.
 C,0,-2.767941,-0.2973939,1.0704429
 N,0,-2.4275358,-1.7064122,1.5665866
 H,0,-2.6997252,0.3115252,1.9599427
 H,0,-3.1071058,0.4676935,0.180481
 H,0,-2.6487257,-2.7266677,0.9286491
 H,0,-1.9251714,-2.4037678,2.2247388
 Recover connectivity data from disk.

 GradGradGradGradGradGradGradGradGradGradGradGradGradGradGradGradGradGrad
 Berny optimization.
 Initialization pass.
 Trust Radius=3.00D-01 FncErr=1.00D-07 GrdErr=1.00D-07
 Number of steps in this run=      2 maximum allowed number of steps=      2.
 GradGradGradGradGradGradGradGradGradGradGradGradGradGradGradGradGradGrad

                          Input orientation:                          
 ---------------------------------------------------------------------
 Center     Atomic      Atomic             Coordinates (Angstroms)
 Number     Number       Type             X           Y           Z
 ---------------------------------------------------------------------
      1          6           0       -2.767941   -0.297394    1.070443
      2          7           0       -2.427536   -1.706412    1.566587
      3          1           0       -2.699725    0.311525    1.959943
      4          1           0       -3.107106    0.467694    0.180481
      5          1           0       -2.648726   -2.726668    0.928649
      6          1           0       -1.925171   -2.403768    2.224739
 ---------------------------------------------------------------------
                    Distance matrix (angstroms):
                    1          2          3          4          5
     1  C    0.000000
     2  N    1.532112   0.000000
     3  H    1.080114   2.073858   0.000000
     4  H    1.221648   2.666428   1.832166   0.000000
     5  H    2.436327   1.223442   3.208860   3.312674   0.000000
     6  H    2.545480   1.082515   2.835995   3.717694   1.519093
                    6
     6  H    0.000000
 Symmetry turned off by external request.
 Stoichiometry    CH4N(1+)
 Framework group  C1[X(CH4N)]
 Deg. of freedom    12
 Full point group                 C1      NOp   1
 Rotational constants (GHZ):    185.5383974     20.3641215     18.4465217
 Basis read from chk: "gaussian.chk" (6D, 7F)
    38 basis functions,    72 primitive gaussians,    38 cartesian basis functions
     8 alpha electrons        8 beta electrons
       nuclear repulsion energy        33.5112659531 Hartrees.
 NAtoms=    6 NActive=    6 NUniq=    6 SFac= 1.00D+00 NAtFMM=   60 NAOKFM=F Big=F
 Integral buffers will be    131072 words long.
 Raffenetti 2 integral format.
 Two-electron integral symmetry is turned off.
 One-electron integrals computed using PRISM.
 NBasis=    38 RedAO= T EigKep=  1.30D-02  NBF=    38
 NBsUse=    38 1.00D-06 EigRej= -1.00D+00 NBFU=    38
 Initial guess from the checkpoint file:  "gaussian.chk"
 B after Tr=     0.000000    0.000000    0.000000
         Rot=    1.000000    0.000000    0.000000    0.000000 Ang=   0.00 deg.
 Keep R1 ints in memory in canonical form, NReq=101191747.
 Requested convergence on RMS density matrix=1.00D-08 within**** cycles.
 Requested convergence on MAX density matrix=1.00D-06.
 Requested convergence on             energy=1.00D-06.
 No special actions if energy rises.
 SCF Done:  E(RB3LYP) =  -94.8122841788     A.U. after    1 cycles
            NFock=  1  Conv=0.11D-08     -V/T= 2.0194

 **********************************************************************

            Population analysis using the SCF density.

 **********************************************************************

 Alpha  occ. eigenvalues --  -14.69567 -10.59435  -1.14123  -0.94652  -0.77741
 Alpha  occ. eigenvalues --   -0.71967  -0.63792  -0.57840
 Alpha virt. eigenvalues --   -0.36549  -0.27323  -0.19807  -0.12484  -0.07969
 Alpha virt. eigenvalues --   -0.03032   0.24853   0.28800   0.32457   0.44338
 Alpha virt. eigenvalues --    0.45501   0.49981   0.53283   0.54730   0.63029
 Alpha virt. eigenvalues --    0.71356   0.82356   0.87023   1.13886   1.31261
 Alpha virt. eigenvalues --    1.44172   1.46122   1.55731   1.65646   1.85390
 Alpha virt. eigenvalues --    1.87706   2.07776   2.37915   3.30254   3.80807
     Molecular Orbital Coefficients:
                           1         2         3         4         5
                           O         O         O         O         O
     Eigenvalues --   -14.69567 -10.59435  -1.14123  -0.94652  -0.77741
   1 1   C  1S          0.00000   0.99297  -0.08678  -0.17335  -0.03871
   2        2S          0.00003   0.04678   0.18458   0.37656   0.07785
   3        2PX         0.00006   0.00007   0.02347  -0.00477  -0.08361
   4        2PY        -0.00024  -0.00065  -0.08679   0.05614   0.37059
   5        2PZ         0.00008   0.00025   0.04419   0.04572  -0.10007
   6        3S         -0.00040  -0.00915   0.10886   0.31286   0.15324
   7        3PX        -0.00005  -0.00002  -0.00216  -0.01132  -0.02704
   8        3PY         0.00023  -0.00041   0.01050   0.05210   0.11563
   9        3PZ        -0.00008  -0.00077   0.00193  -0.00527  -0.02991
  10        4XX         0.00002  -0.00924  -0.00879  -0.01594  -0.00174
  11        4YY         0.00021  -0.00886   0.01100   0.00313  -0.01538
  12        4ZZ         0.00003  -0.00902  -0.00175   0.00580   0.01394
  13        4XY        -0.00006  -0.00010  -0.00568  -0.00448   0.00245
  14        4XZ         0.00002   0.00008   0.00310   0.00571   0.00342
  15        4YZ        -0.00009  -0.00007  -0.00654  -0.00088   0.00691
  16 2   N  1S          0.99284  -0.00013  -0.19472   0.05860   0.02984
  17        2S          0.03402   0.00001   0.42290  -0.13105  -0.07483
  18        2PX         0.00009   0.00002   0.00739  -0.06759   0.12357
  19        2PY        -0.00009  -0.00013  -0.00018   0.23559  -0.33466
  20        2PZ        -0.00017   0.00005  -0.00934  -0.06794   0.16206
  21        3S          0.00377   0.00191   0.43793  -0.15820  -0.07983
  22        3PX        -0.00002   0.00010   0.00380  -0.03475   0.06573
  23        3PY         0.00001  -0.00016  -0.01443   0.13380  -0.17693
  24        3PZ         0.00006   0.00012  -0.00857  -0.02995   0.08394
  25        4XX        -0.00803  -0.00013  -0.01052   0.00150   0.00151
  26        4YY        -0.00806  -0.00075   0.01987  -0.00239   0.00632
  27        4ZZ        -0.00802  -0.00022  -0.00343  -0.00247   0.00284
  28        4XY         0.00001   0.00019  -0.00897   0.00242  -0.00450
  29        4XZ         0.00000  -0.00006   0.00969  -0.00587   0.00430
  30        4YZ         0.00003   0.00027  -0.00761  -0.00149  -0.00066
  31 3   H  1S          0.00001  -0.00024   0.04558   0.15173   0.09755
  32        2S         -0.00006   0.00240  -0.00225   0.02659   0.03894
  33 4   H  1S         -0.00001  -0.00028   0.02178   0.11716   0.17797
  34        2S         -0.00002   0.00145  -0.00564   0.01769   0.08370
  35 5   H  1S          0.00022  -0.00017   0.08807  -0.08306   0.05446
  36        2S         -0.00031   0.00007   0.00146  -0.01513   0.02682
  37 6   H  1S          0.00030  -0.00001   0.11924  -0.13529   0.16633
  38        2S         -0.00047  -0.00043   0.00156  -0.01924   0.06690
                           6         7         8         9        10
                           O         O         O         V         V
     Eigenvalues --    -0.71967  -0.63792  -0.57840  -0.36549  -0.27323
   1 1   C  1S          0.01779   0.01023  -0.00395   0.00905   0.11819
   2        2S         -0.03797  -0.02547   0.00945  -0.02164  -0.25675
   3        2PX         0.08490  -0.04727   0.31374   0.52754  -0.07059
   4        2PY         0.06778   0.11938   0.07427   0.12088   0.26888
   5        2PZ         0.35125   0.32663   0.03101  -0.12321   0.10462
   6        3S         -0.05724  -0.02468   0.01130  -0.04728  -0.83433
   7        3PX         0.03705  -0.02153   0.18913   0.45955  -0.07564
   8        3PY         0.01150   0.03286   0.04325   0.09484   0.31834
   9        3PZ         0.14071   0.16143   0.00519  -0.09247   0.12343
  10        4XX         0.00013  -0.00563   0.00505  -0.00536  -0.00001
  11        4YY        -0.00826   0.00220  -0.00153   0.00449   0.02771
  12        4ZZ         0.01056   0.00496  -0.00465   0.00335   0.00567
  13        4XY         0.00213   0.01230  -0.01199   0.01304  -0.01578
  14        4XZ         0.00021  -0.00723   0.00340   0.00122   0.00692
  15        4YZ         0.01253   0.02725   0.01907  -0.01045  -0.02148
  16 2   N  1S         -0.00176   0.01639   0.01462  -0.01303  -0.12392
  17        2S          0.00995  -0.04304  -0.03648   0.02796   0.25702
  18        2PX         0.13802  -0.25550   0.41148  -0.33412   0.04883
  19        2PY         0.11564  -0.20601  -0.01284  -0.02156   0.11230
  20        2PZ         0.32082  -0.20549  -0.31900   0.17331  -0.06373
  21        3S         -0.02176  -0.06471  -0.05638   0.08318   1.03998
  22        3PX         0.07973  -0.16075   0.29835  -0.30845   0.06176
  23        3PY         0.06932  -0.14955  -0.01014  -0.02388   0.14489
  24        3PZ         0.18685  -0.12677  -0.22470   0.16970  -0.06779
  25        4XX         0.00412  -0.00501  -0.00326  -0.01136  -0.01087
  26        4YY        -0.00030   0.01444   0.00655   0.00476  -0.02815
  27        4ZZ        -0.00286  -0.00391   0.00014   0.00134  -0.01700
  28        4XY        -0.00619   0.00638   0.00749   0.02375   0.00969
  29        4XZ         0.00086  -0.00327  -0.00635  -0.00511  -0.00620
  30        4YZ        -0.00952   0.02526   0.00659  -0.00226   0.02344
  31 3   H  1S          0.16304   0.19761   0.06883  -0.01963  -0.00004
  32        2S          0.09470   0.13449   0.05314  -0.01876   0.02736
  33 4   H  1S         -0.15014  -0.13618  -0.05873   0.03033   0.20246
  34        2S         -0.08882  -0.09931  -0.05559   0.05692   0.49917
  35 5   H  1S         -0.15044   0.20430   0.06809   0.02909  -0.03925
  36        2S         -0.09163   0.15983   0.06461   0.04474  -0.20042
  37 6   H  1S          0.11512  -0.10949  -0.02444  -0.05316  -0.20671
  38        2S          0.06213  -0.08102  -0.02305  -0.08290  -0.57552
                          11        12        13        14        15
                           V         V         V         V         V
     Eigenvalues --    -0.19807  -0.12484  -0.07969  -0.03032   0.24853
   1 1   C  1S          0.03616   0.07939   0.06052  -0.04648  -0.00916
   2        2S         -0.08381  -0.14625  -0.15337   0.07306   0.41459
   3        2PX        -0.00094   0.09407  -0.02839   0.14341   0.06437
   4        2PY        -0.06457  -0.18182  -0.22235  -0.37650  -0.80524
   5        2PZ         0.11178   0.13974  -0.30610   0.36228  -0.26650
   6        3S         -0.35180  -1.04442  -0.96806   0.69768  -0.61116
   7        3PX         0.01869   0.13528  -0.02844   0.36693  -0.21527
   8        3PY        -0.15560  -0.25109  -0.78423  -1.13050   1.61668
   9        3PZ         0.17565   0.12659  -0.73128   0.88770   0.19078
  10        4XX         0.00175  -0.00523   0.00207   0.00611   0.02604
  11        4YY        -0.00419   0.02100  -0.01855  -0.03700   0.04432
  12        4ZZ         0.01111   0.00158   0.01448   0.01540  -0.00559
  13        4XY        -0.00969   0.00254   0.00632   0.00812  -0.01126
  14        4XZ         0.01053  -0.00159   0.00007   0.00099  -0.00011
  15        4YZ        -0.02390   0.00398   0.02007   0.00474  -0.03288
  16 2   N  1S          0.06074   0.03141  -0.00417   0.04550   0.01217
  17        2S         -0.10964  -0.04911  -0.01757  -0.05972   0.00458
  18        2PX         0.09114  -0.18937   0.08517   0.10306   0.04764
  19        2PY         0.33296   0.05996  -0.09991  -0.35497   0.00792
  20        2PZ         0.19020  -0.31462   0.14370   0.10870   0.06249
  21        3S         -0.68818  -0.46697   0.09577  -0.60139   0.71696
  22        3PX         0.12627  -0.30763   0.16552   0.29768  -0.15079
  23        3PY         0.44618   0.16060  -0.15716  -1.07258   0.31259
  24        3PZ         0.27753  -0.47571   0.33569   0.33447  -0.29301
  25        4XX         0.00956   0.00646  -0.00735   0.00380  -0.03286
  26        4YY         0.01353   0.00482  -0.02156   0.04977   0.13401
  27        4ZZ         0.00644   0.00876   0.01019  -0.00296  -0.01378
  28        4XY         0.01041  -0.00629   0.00397  -0.01113  -0.03792
  29        4XZ        -0.00438   0.00112   0.00371   0.00007   0.02480
  30        4YZ         0.02299  -0.00914   0.00110  -0.00441  -0.04448
  31 3   H  1S         -0.05124   0.06433   0.14354  -0.00608  -0.18413
  32        2S         -0.04706   0.54672   1.85932  -0.56641  -0.07821
  33 4   H  1S          0.11967   0.11461  -0.05921   0.03668   0.11524
  34        2S          0.53204   0.89933   0.08460   1.29690  -0.48731
  35 5   H  1S          0.25932  -0.10843   0.00182   0.02169   0.25249
  36        2S          1.11716  -0.43760   0.13602  -0.26741  -0.12110
  37 6   H  1S         -0.05275   0.16285  -0.06826   0.02136   0.12351
  38        2S          0.09891   1.16098  -0.58805  -0.85861  -0.02094
                          16        17        18        19        20
                           V         V         V         V         V
     Eigenvalues --     0.28800   0.32457   0.44338   0.45501   0.49981
   1 1   C  1S         -0.00705  -0.03268  -0.03817  -0.03840   0.00180
   2        2S         -0.02605  -0.06813  -0.46607  -0.52413   0.10947
   3        2PX        -0.99040   0.04719   0.15536  -0.07482   0.05331
   4        2PY        -0.13249   0.20609  -0.06917  -0.13376  -0.17540
   5        2PZ         0.11068  -0.58750  -0.04240   0.08303   0.11060
   6        3S          0.14077   0.70702   0.79132   0.93039  -0.46972
   7        3PX         1.15985   0.23716  -0.45863   0.15738  -0.24102
   8        3PY        -0.02159  -1.04224   0.71406   0.94492   0.58611
   9        3PZ         0.03768   1.52516   0.28984  -0.06511  -0.37229
  10        4XX        -0.00292   0.03752   0.05413   0.04361   0.00103
[...]
  29        4XZ         0.00029   0.00001  -0.00039   0.00040
  30        4YZ         0.00052  -0.00009   0.00067  -0.00040   0.00167
  31 3   H  1S          0.00883  -0.00297   0.00057  -0.00194   0.00651
  32        2S          0.00480  -0.00147   0.00116  -0.00141   0.00560
  33 4   H  1S         -0.00206   0.00219  -0.00219   0.00196  -0.00571
  34        2S         -0.00280   0.00169  -0.00157   0.00161  -0.00414
  35 5   H  1S          0.01146  -0.00060   0.00302   0.00069   0.01292
  36        2S          0.00599  -0.00048   0.00380  -0.00158   0.01066
  37 6   H  1S          0.00393   0.00098  -0.00748   0.00655  -0.00967
  38        2S         -0.00167   0.00074  -0.00287   0.00176  -0.00563
                          31        32        33        34        35
  31 3   H  1S          0.20997
  32        2S          0.10681   0.06423
  33 4   H  1S         -0.03860  -0.05132   0.18082
  34        2S         -0.05468  -0.04195   0.09394   0.05639
  35 5   H  1S          0.03451   0.03312  -0.01471  -0.01624   0.17326
  36        2S          0.04296   0.03378  -0.01754  -0.01871   0.10737
  37 6   H  1S         -0.00683  -0.00502   0.03082   0.02573  -0.02111
  38        2S         -0.00758  -0.00830   0.02549   0.01812  -0.04418
                          36        37        38
  36        2S          0.07814
  37 6   H  1S         -0.04589   0.17205
  38        2S         -0.03609   0.06101   0.03161
    Full Mulliken population analysis:
                           1         2         3         4         5
   1 1   C  1S          2.05103
   2        2S         -0.01701   0.37259
   3        2PX         0.00000   0.00000   0.23088
   4        2PY         0.00000   0.00000   0.00000   0.34476
   5        2PZ         0.00000   0.00000   0.00000   0.00000   0.49017
   6        3S         -0.02949   0.24744   0.00000   0.00000   0.00000
   7        3PX         0.00000   0.00000   0.07494   0.00000   0.00000
   8        3PY         0.00000   0.00000   0.00000   0.06014   0.00000
   9        3PZ         0.00000   0.00000   0.00000   0.00000   0.11982
  10        4XX        -0.00089  -0.01137   0.00000   0.00000   0.00000
  11        4YY        -0.00155   0.00261   0.00000   0.00000   0.00000
  12        4ZZ        -0.00160   0.00277   0.00000   0.00000   0.00000
  13        4XY         0.00000   0.00000   0.00000   0.00000   0.00000
  14        4XZ         0.00000   0.00000   0.00000   0.00000   0.00000
  15        4YZ         0.00000   0.00000   0.00000   0.00000   0.00000
  16 2   N  1S          0.00000  -0.00013  -0.00002  -0.00089  -0.00003
  17        2S         -0.00005   0.00387   0.00053   0.02086   0.00079
  18        2PX        -0.00001   0.00051   0.00846   0.00485   0.00126
  19        2PY        -0.00032   0.01449   0.00405   0.04021   0.00239
  20        2PZ        -0.00005   0.00199   0.00257   0.00426   0.00053
  21        3S         -0.00051   0.00860   0.00013   0.03906  -0.00159
  22        3PX        -0.00008   0.00071   0.03170   0.00579   0.00156
  23        3PY        -0.00287   0.03049   0.00449   0.03063  -0.00045
  24        3PZ        -0.00037   0.00378   0.00373   0.00305   0.00183
  25        4XX         0.00000  -0.00016   0.00001  -0.00019  -0.00006
  26        4YY        -0.00007   0.00117   0.00022  -0.00129   0.00124
  27        4ZZ         0.00000  -0.00016  -0.00002  -0.00013   0.00000
  28        4XY        -0.00001   0.00012   0.00024   0.00003  -0.00003
  29        4XZ         0.00000   0.00000   0.00009   0.00003   0.00002
  30        4YZ        -0.00002   0.00040   0.00000   0.00086   0.00037
  31 3   H  1S         -0.00203   0.03503   0.00087   0.03408   0.07618
  32        2S         -0.00013   0.00598   0.00050   0.01275   0.03331
  33 4   H  1S         -0.00118   0.02801   0.00634   0.01437   0.04637
  34        2S         -0.00105   0.01466   0.00396   0.00341   0.02765
  35 5   H  1S          0.00000  -0.00004   0.00000  -0.00024  -0.00001
  36        2S          0.00002  -0.00040   0.00002  -0.00368  -0.00015
  37 6   H  1S          0.00000  -0.00004  -0.00001  -0.00016  -0.00003
  38        2S          0.00001  -0.00021  -0.00013  -0.00154  -0.00066
                           6         7         8         9        10
   6        3S          0.27463
   7        3PX         0.00000   0.07694
   8        3PY         0.00000   0.00000   0.03856
   9        3PZ         0.00000   0.00000   0.00000   0.09362
  10        4XX        -0.00748   0.00000   0.00000   0.00000   0.00095
  11        4YY         0.00038   0.00000   0.00000   0.00000  -0.00004
  12        4ZZ         0.00386   0.00000   0.00000   0.00000  -0.00005
  13        4XY         0.00000   0.00000   0.00000   0.00000   0.00000
  14        4XZ         0.00000   0.00000   0.00000   0.00000   0.00000
  15        4YZ         0.00000   0.00000   0.00000   0.00000   0.00000
  16 2   N  1S          0.00009   0.00005  -0.00092   0.00005   0.00000
  17        2S         -0.00285  -0.00058   0.01103  -0.00056  -0.00009
  18        2PX        -0.00012   0.02018   0.00280   0.00104   0.00006
  19        2PY         0.00603   0.00162   0.00856  -0.00155  -0.00022
  20        2PZ         0.00147   0.00215  -0.00033   0.00116  -0.00002
  21        3S         -0.01070  -0.00188   0.01942  -0.00376  -0.00039
  22        3PX        -0.00057   0.05073   0.00414   0.00152  -0.00022
  23        3PY         0.01252   0.00207   0.00541  -0.00415  -0.00059
  24        3PZ         0.00260   0.00353  -0.00155   0.00171   0.00000
  25        4XX        -0.00024  -0.00004   0.00009  -0.00008   0.00000
  26        4YY         0.00118   0.00018  -0.00110   0.00077  -0.00004
  27        4ZZ        -0.00018  -0.00001   0.00000  -0.00017   0.00000
  28        4XY         0.00004   0.00027   0.00000  -0.00001   0.00000
  29        4XZ         0.00000   0.00009   0.00000   0.00002   0.00000
  30        4YZ         0.00014  -0.00002   0.00007   0.00054   0.00000
  31 3   H  1S          0.04111   0.00067   0.01803   0.04380  -0.00091
  32        2S          0.00834   0.00068   0.00896   0.03254  -0.00069
  33 4   H  1S          0.05046   0.00550   0.01132   0.03575  -0.00039
  34        2S          0.03174   0.00468   0.00288   0.02734  -0.00008
  35 5   H  1S         -0.00028   0.00002  -0.00247  -0.00015   0.00000
  36        2S          0.00055   0.00015  -0.00598  -0.00047  -0.00003
  37 6   H  1S         -0.00047  -0.00007  -0.00154  -0.00047   0.00000
  38        2S          0.00077  -0.00036  -0.00180  -0.00165   0.00003
                          11        12        13        14        15
  11        4YY         0.00104
  12        4ZZ        -0.00014   0.00094
  13        4XY         0.00000   0.00000   0.00072
  14        4XZ         0.00000   0.00000   0.00000   0.00024
  15        4YZ         0.00000   0.00000   0.00000   0.00000   0.00271
  16 2   N  1S         -0.00005   0.00000  -0.00001   0.00000  -0.00003
  17        2S          0.00161  -0.00020   0.00022   0.00002   0.00077
  18        2PX         0.00057   0.00001   0.00066   0.00011   0.00024
  19        2PY         0.00170  -0.00041   0.00064   0.00011   0.00160
  20        2PZ         0.00103   0.00005   0.00018   0.00001   0.00025
  21        3S          0.00303  -0.00110   0.00019   0.00001   0.00081
  22        3PX         0.00064   0.00011   0.00128   0.00020   0.00016
  23        3PY         0.00147  -0.00112   0.00025   0.00007   0.00066
  24        3PZ         0.00108  -0.00042   0.00011   0.00001   0.00098
  25        4XX        -0.00004   0.00000   0.00000   0.00000   0.00001
  26        4YY         0.00008   0.00002   0.00000   0.00000  -0.00016
  27        4ZZ        -0.00002   0.00000   0.00000   0.00000   0.00000
  28        4XY        -0.00001   0.00001   0.00000   0.00000   0.00004
  29        4XZ         0.00000   0.00000   0.00000   0.00000  -0.00001
  30        4YZ        -0.00002   0.00000   0.00004  -0.00001  -0.00007
  31 3   H  1S         -0.00071   0.00321   0.00005   0.00001   0.00495
  32        2S         -0.00086   0.00172   0.00001  -0.00001   0.00079
  33 4   H  1S         -0.00041   0.00051   0.00025   0.00040   0.00249
  34        2S         -0.00048   0.00007   0.00003   0.00005   0.00059
  35 5   H  1S          0.00001   0.00000   0.00000   0.00000   0.00000
  36        2S          0.00009  -0.00001  -0.00001   0.00000   0.00004
  37 6   H  1S         -0.00001   0.00000   0.00000   0.00000   0.00000
  38        2S         -0.00018   0.00008   0.00001   0.00001   0.00006
                          16        17        18        19        20
  16 2   N  1S          2.05693
  17        2S         -0.02655   0.41212
  18        2PX         0.00000   0.00000   0.54708
  19        2PY         0.00000   0.00000   0.00000   0.44695
  20        2PZ         0.00000   0.00000   0.00000   0.00000   0.55575
  21        3S         -0.03266   0.33605   0.00000   0.00000   0.00000
  22        3PX         0.00000   0.00000   0.19249   0.00000   0.00000
  23        3PY         0.00000   0.00000   0.00000   0.13470   0.00000
  24        3PZ         0.00000   0.00000   0.00000   0.00000   0.18008
  25        4XX        -0.00060  -0.00592   0.00000   0.00000   0.00000
  26        4YY        -0.00116   0.00904   0.00000   0.00000   0.00000
  27        4ZZ        -0.00075  -0.00188   0.00000   0.00000   0.00000
  28        4XY         0.00000   0.00000   0.00000   0.00000   0.00000
  29        4XZ         0.00000   0.00000   0.00000   0.00000   0.00000
  30        4YZ         0.00000   0.00000   0.00000   0.00000   0.00000
  31 3   H  1S          0.00000  -0.00015  -0.00001  -0.00034  -0.00002
  32        2S          0.00015  -0.00257  -0.00008  -0.00386  -0.00030
  33 4   H  1S          0.00000   0.00000   0.00000  -0.00001  -0.00001
  34        2S          0.00001  -0.00027   0.00001  -0.00057  -0.00062
  35 5   H  1S         -0.00041   0.00898   0.00236   0.03339   0.02091
  36        2S          0.00037  -0.00651   0.00153   0.01778   0.01515
  37 6   H  1S         -0.00145   0.02712   0.01698   0.01881   0.03534
  38        2S         -0.00025   0.00246   0.00529   0.00069   0.01323
                          21        22        23        24        25
  21        3S          0.46208
  22        3PX         0.00000   0.25350
  23        3PY         0.00000   0.00000   0.15338
  24        3PZ         0.00000   0.00000   0.00000   0.21898
  25        4XX        -0.00614   0.00000   0.00000   0.00000   0.00046
  26        4YY         0.00971   0.00000   0.00000   0.00000  -0.00016
  27        4ZZ        -0.00142   0.00000   0.00000   0.00000   0.00007
  28        4XY         0.00000   0.00000   0.00000   0.00000   0.00000
  29        4XZ         0.00000   0.00000   0.00000   0.00000   0.00000
  30        4YZ         0.00000   0.00000   0.00000   0.00000   0.00000
  31 3   H  1S         -0.00391  -0.00014  -0.00541  -0.00043   0.00000
  32        2S         -0.01065  -0.00034  -0.01274  -0.00126  -0.00005
  33 4   H  1S         -0.00019   0.00000  -0.00039  -0.00060   0.00000
  34        2S         -0.00009   0.00028  -0.00098  -0.00302   0.00002
  35 5   H  1S          0.02082   0.00325   0.05395   0.03337  -0.00050
  36        2S         -0.01342   0.00230   0.03495   0.02853  -0.00085
  37 6   H  1S          0.04969   0.01795   0.01726   0.03825  -0.00004
  38        2S          0.00481   0.00821  -0.00157   0.02211   0.00059
                          26        27        28        29        30
  26        4YY         0.00151
  27        4ZZ        -0.00002   0.00023
  28        4XY         0.00000   0.00000   0.00048
  29        4XZ         0.00000   0.00000   0.00000   0.00040
  30        4YZ         0.00000   0.00000   0.00000   0.00000   0.00167
  31 3   H  1S          0.00018  -0.00001   0.00000   0.00000   0.00004
  32        2S          0.00068  -0.00012  -0.00002   0.00000   0.00012
  33 4   H  1S          0.00000   0.00000   0.00000   0.00000   0.00000
  34        2S         -0.00011   0.00005   0.00002   0.00001   0.00009
  35 5   H  1S          0.00309  -0.00009   0.00022   0.00003   0.00267
  36        2S          0.00218  -0.00016   0.00009  -0.00002   0.00070
  37 6   H  1S          0.00103   0.00024   0.00132   0.00109   0.00224
  38        2S         -0.00065   0.00028   0.00012   0.00007   0.00031
                          31        32        33        34        35
  31 3   H  1S          0.20997
  32        2S          0.07031   0.06423
  33 4   H  1S         -0.00057  -0.00701   0.18082
  34        2S         -0.00747  -0.01596   0.06184   0.05639
  35 5   H  1S          0.00000   0.00018   0.00000  -0.00006   0.17326
  36        2S          0.00023   0.00174  -0.00007  -0.00079   0.07068
  37 6   H  1S          0.00000  -0.00008   0.00000   0.00003  -0.00108
  38        2S         -0.00012  -0.00082   0.00003   0.00034  -0.00986
                          36        37        38
  36        2S          0.07814
  37 6   H  1S         -0.01024   0.17205
  38        2S         -0.01857   0.04016   0.03161
     Gross orbital populations:
                           1
   1 1   C  1S          1.99177
   2        2S          0.74571
   3        2PX         0.37355
   4        2PY         0.61104
   5        2PZ         0.80049
   6        3S          0.63099
   7        3PX         0.24151
   8        3PY         0.17570
   9        3PZ         0.34666
  10        4XX        -0.02243
  11        4YY         0.01084
  12        4ZZ         0.00833
  13        4XY         0.00463
  14        4XZ         0.00124
  15        4YZ         0.01688
  16 2   N  1S          1.99176
  17        2S          0.78729
  18        2PX         0.80625
  19        2PY         0.72644
  20        2PZ         0.83475
  21        3S          0.86602
  22        3PX         0.57518
  23        3PY         0.45203
  24        3PZ         0.53608
  25        4XX        -0.01379
  26        4YY         0.02752
  27        4ZZ        -0.00426
  28        4XY         0.00291
  29        4XZ         0.00184
  30        4YZ         0.01013
  31 3   H  1S          0.51653
  32        2S          0.18545
  33 4   H  1S          0.43365
  34        2S          0.20459
  35 5   H  1S          0.41201
  36        2S          0.19387
  37 6   H  1S          0.42391
  38        2S          0.09292
          Condensed to atoms (all electrons):
               1          2          3          4          5          6
     1  C    4.864486   0.420243   0.358257   0.315272  -0.013009  -0.008342
     2  N    0.420243   6.681299  -0.041230  -0.006373   0.264652   0.281556
     3  H    0.358257  -0.041230   0.414820  -0.031004   0.002152  -0.001013
     4  H    0.315272  -0.006373  -0.031004   0.360885  -0.000927   0.000392
     5  H   -0.013009   0.264652   0.002152  -0.000927   0.392759  -0.039741
     6  H   -0.008342   0.281556  -0.001013   0.000392  -0.039741   0.283980
 Mulliken charges:
               1
     1  C    0.063093
     2  N   -0.600147
     3  H    0.298018
     4  H    0.361755
     5  H    0.394114
     6  H    0.483167
 Sum of Mulliken charges =   1.00000
 Mulliken charges with hydrogens summed into heavy atoms:
               1
     1  C    0.722866
     2  N    0.277134
 Electronic spatial extent (au):  <R**2>=            635.0679
 Charge=              1.0000 electrons
 Dipole moment (field-independent basis, Debye):
    X=            -12.3897    Y=             -5.4249    Z=              6.0432  Tot=             14.8140
 Quadrupole moment (field-independent basis, Debye-Ang):
   XX=             20.2559   YY=              6.4061   ZZ=             -1.5439
   XY=             11.0921   XZ=            -13.5624   YZ=             -9.8249
 Traceless Quadrupole moment (field-independent basis, Debye-Ang):
   XX=             11.8832   YY=             -1.9666   ZZ=             -9.9166
   XY=             11.0921   XZ=            -13.5624   YZ=             -9.8249
 Octapole moment (field-independent basis, Debye-Ang**2):
  XXX=              8.9952  YYY=            -13.9667  ZZZ=            -26.9786  XYY=             -9.9574
  XXY=             -9.3527  XXZ=             14.6501  XZZ=              9.7053  YZZ=             -6.0725
  YYZ=             13.1013  XYZ=             18.6799
 Hexadecapole moment (field-independent basis, Debye-Ang**3):
 XXXX=           -278.4010 YYYY=              1.7781 ZZZZ=           -105.0943 XXXY=            -51.9404
 XXXZ=             52.6388 YYYX=             24.3850 YYYZ=            -23.8061 ZZZX=             80.9511
 ZZZY=             17.5437 XXYY=            -14.2893 XXZZ=            -64.5906 YYZZ=              6.2451
 XXYZ=            -15.3620 YYXZ=            -17.5524 ZZXY=              1.5241
 N-N= 3.351126595313D+01 E-N=-2.817774303263D+02  KE= 9.300757530695D+01
 Orbital energies and kinetic energies (alpha):
                                 1                 2
   1         O               -14.695668         21.967370
   2         O               -10.594350         15.892614
   3         O                -1.141235          1.860593
   4         O                -0.946522          1.475711
   5         O                -0.777407          1.355900
   6         O                -0.719674          1.172470
   7         O                -0.637921          1.300382
   8         O                -0.578405          1.478747
   9         V                -0.365488          1.546965
  10         V                -0.273232          1.787458
  11         V                -0.198067          1.249981
  12         V                -0.124843          1.270431
  13         V                -0.079689          1.008953
  14         V                -0.030316          1.691329
  15         V                 0.248533          1.768175
  16         V                 0.287998          2.007497
  17         V                 0.324571          1.722811
  18         V                 0.443385          2.203414
  19         V                 0.455013          2.149480
  20         V                 0.499811          2.592862
  21         V                 0.532828          2.301265
  22         V                 0.547303          2.366424
  23         V                 0.630286          2.434967
  24         V                 0.713558          2.462904
  25         V                 0.823560          2.249871
  26         V                 0.870232          2.259728
  27         V                 1.138856          2.581838
  28         V                 1.312608          2.734174
  29         V                 1.441723          2.904392
  30         V                 1.461219          2.925066
  31         V                 1.557314          3.306042
  32         V                 1.656462          3.152943
  33         V                 1.853905          3.463927
  34         V                 1.877065          3.416982
  35         V                 2.077763          3.755757
  36         V                 2.379149          4.342898
  37         V                 3.302543          9.464548
  38         V                 3.808065          9.785721
 Total kinetic energy from orbitals= 9.300757530695D+01

 Test job not archived.
 1\1\GINC-EAM\SP\RB3LYP TD-FC\Gen\C1H4N1(1+)\DULIKAI\29-Apr-2014\0\\# t
 d(singlet, root=0, nstates=2) b3lyp/ChkBasis scf=(tight,maxcycle=10000
 ) iop(9/40=20) nosymm pop=full geom=AllCheck Guess=Read\\[0] [0]\\1,1\
 C,-2.767941,-0.2973939,1.0704429\N,-2.4275358,-1.7064122,1.5665866\H,-
 2.6997252,0.3115252,1.9599427\H,-3.1071058,0.4676935,0.180481\H,-2.648
 7257,-2.7266677,0.9286491\H,-1.9251714,-2.4037678,2.2247388\\Version=E
 M64L-G09RevD.01\HF=-94.8122842\RMSD=1.850e-09\PG=C01 [X(C1H4N1)]\\@


    WHAT WE HAVE LEARNED
 IS LIKE A HANDFUL OF EARTH;
  WHAT WE HAVE YET TO LEARN
   IS LIKE THE WHOLE WORLD.

         -- AVVAYIAR
 Job cpu time:       0 days  0 hours  0 minutes  6.7 seconds.
 File lengths (MBytes):  RWF=      5 Int=      0 D2E=      0 Chk=      1 Scr=      1
 Normal termination of Gaussian 09 at Tue Apr 29 21:34:59 2014.
