 Entering Gaussian System, Link 0=g09
 Input=gaussian.gjf
 Output=gaussian.log
 Initial command:
 /opt/g09_D01_em64t/g09/l1.exe "/tmp/Gau-7810.inp" -scrdir="/tmp/"
 Entering Link 1 = /opt/g09_D01_em64t/g09/l1.exe PID=      7811.
  
 Copyright (c) 1988,1990,1992,1993,1995,1998,2003,2009,2013,
            Gaussian, Inc.  All Rights Reserved.
  
 This is part of the Gaussian(R) 09 program.  It is based on
 the Gaussian(R) 03 system (copyright 2003, Gaussian, Inc.),
 the Gaussian(R) 98 system (copyright 1998, Gaussian, Inc.),
 the Gaussian(R) 94 system (copyright 1995, Gaussian, Inc.),
 the Gaussian 92(TM) system (copyright 1992, Gaussian, Inc.),
 the Gaussian 90(TM) system (copyright 1990, Gaussian, Inc.),
 the Gaussian 88(TM) system (copyright 1988, Gaussian, Inc.),
 the Gaussian 86(TM) system (copyright 1986, Carnegie Mellon
 University), and the Gaussian 82(TM) system (copyright 1983,
 Carnegie Mellon University). Gaussian is a federally registered
 trademark of Gaussian, Inc.
  
 This software contains proprietary and confidential information,
 including trade secrets, belonging to Gaussian, Inc.
  
 This software is provided under written license and may be
 used, copied, transmitted, or stored only in accord with that
 written license.
  
 The following legend is applicable only to US Government
 contracts under FAR:
  
                    RESTRICTED RIGHTS LEGEND
  
 Use, reproduction and disclosure by the US Government is
 subject to restrictions as set forth in subparagraphs (a)
 and (c) of the Commercial Computer Software - Restricted
 Rights clause in FAR 52.227-19.
  
 Gaussian, Inc.
 340 Quinnipiac St., Bldg. 40, Wallingford CT 06492
  
  
 ---------------------------------------------------------------
 Warning -- This program may not be used in any manner that
 competes with the business of Gaussian, Inc. or will provide
 assistance to any competitor of Gaussian, Inc.  The licensee
 of this program is prohibited from giving any competitor of
 Gaussian, Inc. access to this program.  By using this program,
 the user acknowledges that Gaussian, Inc. is engaged in the
 business of creating and licensing software in the field of
 computational chemistry and represents and warrants to the
 licensee that it is not a competitor of Gaussian, Inc. and that
 it will not use this program in any manner prohibited above.
 ---------------------------------------------------------------
  

 Cite this work as:
 Gaussian 09, Revision D.01,
 M. J. Frisch, G. W. Trucks, H. B. Schlegel, G. E. Scuseria, 
 M. A. Robb, J. R. Cheeseman, G. Scalmani, V. Barone, B. Mennucci, 
 G. A. Petersson, H. Nakatsuji, M. Caricato, X. Li, H. P. Hratchian, 
 A. F. Izmaylov, J. Bloino, G. Zheng, J. L. Sonnenberg, M. Hada, 
 M. Ehara, K. Toyota, R. Fukuda, J. Hasegawa, M. Ishida, T. Nakajima, 
 Y. Honda, O. Kitao, H. Nakai, T. Vreven, J. A. Montgomery, Jr., 
 J. E. Peralta, F. Ogliaro, M. Bearpark, J. J. Heyd, E. Brothers, 
 K. N. Kudin, V. N. Staroverov, T. Keith, R. Kobayashi, J. Normand, 
 K. Raghavachari, A. Rendell, J. C. Burant, S. S. Iyengar, J. Tomasi, 
 M. Cossi, N. Rega, J. M. Millam, M. Klene, J. E. Knox, J. B. Cross, 
 V. Bakken, C. Adamo, J. Jaramillo, R. Gomperts, R. E. Stratmann, 
 O. Yazyev, A. J. Austin, R. Cammi, C. Pomelli, J. W. Ochterski, 
 R. L. Martin, K. Morokuma, V. G. Zakrzewski, G. A. Voth, 
 P. Salvador, J. J. Dannenberg, S. Dapprich, A. D. Daniels, 
 O. Farkas, J. B. Foresman, J. V. Ortiz, J. Cioslowski, 
 and D. J. Fox, Gaussian, Inc., Wallingford CT, 2013.
 
 ******************************************
 Gaussian 09:  EM64L-G09RevD.01 24-Apr-2013
                30-Apr-2014 
 ******************************************
 %chk=gaussian.chk
 %mem=1GB
 %nproc=2
 Will use up to    2 processors via shared memory.
 %nproclinda=1
 Will use up to    1 processors via Linda.
 --------------------------------------------------------
 #HF/6-31g* nosymm iop(2/12=3,3/33=1) guess=only pop=full
 --------------------------------------------------------
 1/38=1/1;
 2/12=3,15=1,17=6,18=5,40=1/2;
 3/5=1,6=6,7=1,11=9,16=1,25=1,30=1,33=1,89=1/1,2;
 4//1;
 6/7=3,28=1/1;
 99/5=2/99;
 -------
 [0] [0]
 -------
 Symbolic Z-matrix:
 Charge =  2 Multiplicity = 1
 c                    -2.39686   0.38312   0.11121 
 n                    -1.24301   0.20673   0.16045 
 h                    -2.84455   0.14332   1.10134 
 h                    -2.40351  -0.09931  -0.82372 
 h                    -0.36219   0.36384  -0.69487 
 h                    -1.01781   0.96136   0.8666 
 c                    -2.39272   0.38132   0.10936 
 n                    -1.24434   0.20835   0.15927 
 h                    -2.84088   0.16171   1.11731 
 h                    -2.40814  -0.1013   -0.81893 
 h                    -0.36694   0.35961  -0.70315 
 h                    -1.04493   0.94474   0.89164 
 
                          Input orientation:                          
 ---------------------------------------------------------------------
 Center     Atomic      Atomic             Coordinates (Angstroms)
 Number     Number       Type             X           Y           Z
 ---------------------------------------------------------------------
      1          6           0       -2.396865    0.383122    0.111211
      2          7           0       -1.243005    0.206726    0.160448
      3          1           0       -2.844547    0.143319    1.101336
      4          1           0       -2.403508   -0.099306   -0.823720
      5          1           0       -0.362192    0.363838   -0.694866
      6          1           0       -1.017807    0.961356    0.866597
      7          6           0       -2.392718    0.381324    0.109356
      8          7           0       -1.244336    0.208351    0.159273
      9          1           0       -2.840885    0.161705    1.117309
     10          1           0       -2.408136   -0.101302   -0.818935
     11          1           0       -0.366943    0.359609   -0.703147
     12          1           0       -1.044931    0.944740    0.891635
 ---------------------------------------------------------------------
                    Distance matrix (angstroms):
                    1          2          3          4          5
     1  C    0.000000
     2  N    1.168303   0.000000
     3  H    1.112777   1.858555   0.000000
     4  H    1.052081   1.552098   1.989779   0.000000
     5  H    2.188612   1.237771   3.071979   2.097159   0.000000
     6  H    1.675340   1.057746   2.015259   2.429473   1.795835
     7  C    0.004885   1.164017   1.115715   1.049644   2.184060
     8  N    1.166695   0.002407   1.858060   1.550680   1.237703
     9  H    1.121790   1.863016   0.024630   2.006743   3.077134
    10  H    1.048792   1.552933   1.984373   0.006950   2.101817
    11  H    2.187307   1.239619   3.072696   2.091109   0.010442
    12  H    1.658976   1.057607   1.981128   2.424501   1.822242
                    6          7          8          9         10
     6  H    0.000000
     7  C    1.673390   0.000000
     8  N    1.057657   1.162408   0.000000
     9  H    2.006468   1.124746   1.862519   0.000000
    10  H    2.429665   1.046370   1.551517   2.001371   0.000000
    11  H    1.802725   2.182750   1.239543   3.077924   2.095785
    12  H    0.040481   1.657085   1.057537   1.972188   2.424578
                   11         12
    11  H    0.000000
    12  H    1.829036   0.000000
 Symmetry turned off by external request.
 Stoichiometry    C2H8N2(2+)
 Framework group  C1[X(C2H8N2)]
 Deg. of freedom    30
 Full point group                 C1      NOp   1
 Rotational constants (GHZ):     64.6323259     18.8708385     15.8141032
 Standard basis: 6-31G(d) (6D, 7F)
                         Coordinates in L301:                         
 ---------------------------------------------------------------------
 Center     Atomic      Atomic             Coordinates (Angstroms)
 Number     Number       Type             X           Y           Z
 ---------------------------------------------------------------------
      1          6           0       -2.396865    0.383122    0.111211
      2          7           0       -1.243005    0.206726    0.160448
      3          1           0       -2.844547    0.143319    1.101336
      4          1           0       -2.403508   -0.099306   -0.823720
      5          1           0       -0.362192    0.363838   -0.694866
      6          1           0       -1.017807    0.961356    0.866597
      7          6           0       -2.392718    0.381324    0.109356
      8          7           0       -1.244336    0.208351    0.159273
      9          1           0       -2.840885    0.161705    1.117309
     10          1           0       -2.408136   -0.101302   -0.818935
     11          1           0       -0.366943    0.359609   -0.703147
     12          1           0       -1.044931    0.944740    0.891635
 ---------------------------------------------------------------------
 FixB: optimizing general contractions.
 Ernie: Thresh=  0.10000D-02 Tol=  0.10000D-05 Strict=F.
 IA=     1 ShT= 0 ShC= 0 NL=   1 NS=   0.
 IA=     1 L=0 SC=0 ISt=    0 NBk=    0 NP=    0 IndPr=    0.
 IA=     1 ShT= 1 ShC= 0 NL=   2 NS=   1.
 IA=     1 L=1 SC=0 ISt=    0 NBk=    0 NP=    0 IndPr=    0.
 IA=     1 ShT= 2 ShC= 2 NL=   1 NS=   1.
 IA=     1 L=2 SC=2 ISt=    0 NBk=    0 NP=    0 IndPr=    0.
 IA=     2 ShT= 0 ShC= 0 NL=   1 NS=   0.
 IA=     2 L=0 SC=0 ISt=    0 NBk=    0 NP=    0 IndPr=    0.
 IA=     2 ShT= 1 ShC= 0 NL=   2 NS=   1.
 IA=     2 L=1 SC=0 ISt=    0 NBk=    0 NP=    0 IndPr=    0.
 IA=     2 ShT= 2 ShC= 2 NL=   1 NS=   1.
 IA=     2 L=2 SC=2 ISt=    0 NBk=    0 NP=    0 IndPr=    0.
 IA=     3 ShT= 0 ShC= 0 NL=   2 NS=   1.
 IA=     3 L=0 SC=0 ISt=    0 NBk=    0 NP=    0 IndPr=    0.
 IA=     4 ShT= 0 ShC= 0 NL=   2 NS=   1.
 IA=     4 L=0 SC=0 ISt=    0 NBk=    0 NP=    0 IndPr=    0.
 IA=     5 ShT= 0 ShC= 0 NL=   2 NS=   1.
 IA=     5 L=0 SC=0 ISt=    0 NBk=    0 NP=    0 IndPr=    0.
 IA=     6 ShT= 0 ShC= 0 NL=   2 NS=   1.
 IA=     6 L=0 SC=0 ISt=    0 NBk=    0 NP=    0 IndPr=    0.
 IA=     7 ShT= 0 ShC= 0 NL=   1 NS=   0.
 IA=     7 L=0 SC=0 ISt=    0 NBk=    0 NP=    0 IndPr=    0.
 IA=     7 ShT= 1 ShC= 0 NL=   2 NS=   1.
 IA=     7 L=1 SC=0 ISt=    0 NBk=    0 NP=    0 IndPr=    0.
 IA=     7 ShT= 2 ShC= 2 NL=   1 NS=   1.
 IA=     7 L=2 SC=2 ISt=    0 NBk=    0 NP=    0 IndPr=    0.
 IA=     8 ShT= 0 ShC= 0 NL=   1 NS=   0.
 IA=     8 L=0 SC=0 ISt=    0 NBk=    0 NP=    0 IndPr=    0.
 IA=     8 ShT= 1 ShC= 0 NL=   2 NS=   1.
 IA=     8 L=1 SC=0 ISt=    0 NBk=    0 NP=    0 IndPr=    0.
 IA=     8 ShT= 2 ShC= 2 NL=   1 NS=   1.
 IA=     8 L=2 SC=2 ISt=    0 NBk=    0 NP=    0 IndPr=    0.
 IA=     9 ShT= 0 ShC= 0 NL=   2 NS=   1.
 IA=     9 L=0 SC=0 ISt=    0 NBk=    0 NP=    0 IndPr=    0.
 IA=    10 ShT= 0 ShC= 0 NL=   2 NS=   1.
 IA=    10 L=0 SC=0 ISt=    0 NBk=    0 NP=    0 IndPr=    0.
 IA=    11 ShT= 0 ShC= 0 NL=   2 NS=   1.
 IA=    11 L=0 SC=0 ISt=    0 NBk=    0 NP=    0 IndPr=    0.
 IA=    12 ShT= 0 ShC= 0 NL=   2 NS=   1.
 IA=    12 L=0 SC=0 ISt=    0 NBk=    0 NP=    0 IndPr=    0.
 LdAtmC:  AtmChg=     6.000000     7.000000     1.000000     1.000000     1.000000
 LdAtmC:  AtmChg=     1.000000     6.000000     7.000000     1.000000     1.000000
 LdAtmC:  AtmChg=     1.000000     1.000000
 AtZEff=     -3.6000000     -4.5500000     -1.0000000     -1.0000000     -1.0000000
 AtZEff=     -1.0000000     -3.6000000     -4.5500000     -1.0000000     -1.0000000
 AtZEff=     -1.0000000     -1.0000000
    76 basis functions,   144 primitive gaussians,    76 cartesian basis functions
    16 alpha electrons       16 beta electrons
       nuclear repulsion energy     14997.7818665567 Hartrees.
 IS=     1 IAt=     1 ISR=     1 T=0 IP=      1 IndIP=      1 IndIPD=      0 C=  5.363452D-01  0.000000D+00                             NZ=T
 IS=     1 IAt=     1 ISR=     1 T=0 IP=      2 IndIP=      2 IndIPD=      1 C=  9.894521D-01  0.000000D+00                             NZ=T
 IS=     1 IAt=     1 ISR=     1 T=0 IP=      3 IndIP=      3 IndIPD=      2 C=  1.597283D+00  0.000000D+00                             NZ=T
 IS=     1 IAt=     1 ISR=     1 T=0 IP=      4 IndIP=      4 IndIPD=      3 C=  2.079187D+00  0.000000D+00                             NZ=T
 IS=     1 IAt=     1 ISR=     1 T=0 IP=      5 IndIP=      5 IndIPD=      4 C=  1.774174D+00  0.000000D+00                             NZ=T
 IS=     1 IAt=     1 ISR=     1 T=0 IP=      6 IndIP=      6 IndIPD=      5 C=  6.125797D-01  0.000000D+00                             NZ=T
 IS=     2 IAt=     1 ISR=     2 T=1 IP=      1 IndIP=      7 IndIPD=      0 C= -3.995564D-01  1.296082D+00                             NZ=T
 IS=     2 IAt=     1 ISR=     2 T=1 IP=      2 IndIP=      8 IndIPD=      1 C= -1.841552D-01  9.937536D-01                             NZ=T
 IS=     2 IAt=     1 ISR=     2 T=1 IP=      3 IndIP=      9 IndIPD=      2 C=  5.163903D-01  4.959527D-01                             NZ=T
 IS=     3 IAt=     1 ISR=     3 T=1 IP=      1 IndIP=     10 IndIPD=      0 C=  1.876179D-01  1.541276D-01                             NZ=T
 IS=     4 IAt=     1 ISR=     4 T=2 IP=      1 IndIP=     11 IndIPD=      1 C=  0.000000D+00  0.000000D+00  1.113825D+00  0.000000D+00 NZ=T
 IS=     5 IAt=     2 ISR=     1 T=0 IP=      1 IndIP=     12 IndIPD=      0 C=  6.789979D-01  0.000000D+00                             NZ=T
 IS=     5 IAt=     2 ISR=     1 T=0 IP=      2 IndIP=     13 IndIPD=      1 C=  1.250431D+00  0.000000D+00                             NZ=T
 IS=     5 IAt=     2 ISR=     1 T=0 IP=      3 IndIP=     14 IndIPD=      2 C=  2.020356D+00  0.000000D+00                             NZ=T
 IS=     5 IAt=     2 ISR=     1 T=0 IP=      4 IndIP=     15 IndIPD=      3 C=  2.644212D+00  0.000000D+00                             NZ=T
 IS=     5 IAt=     2 ISR=     1 T=0 IP=      5 IndIP=     16 IndIPD=      4 C=  2.265005D+00  0.000000D+00                             NZ=T
 IS=     5 IAt=     2 ISR=     1 T=0 IP=      6 IndIP=     17 IndIPD=      5 C=  7.791879D-01  0.000000D+00                             NZ=T
 IS=     6 IAt=     2 ISR=     2 T=1 IP=      1 IndIP=     18 IndIPD=      0 C= -5.158747D-01  2.068052D+00                             NZ=T
 IS=     6 IAt=     2 ISR=     2 T=1 IP=      2 IndIP=     19 IndIPD=      1 C= -2.550231D-01  1.610011D+00                             NZ=T
 IS=     6 IAt=     2 ISR=     2 T=1 IP=      3 IndIP=     20 IndIPD=      2 C=  6.727345D-01  7.644904D-01                             NZ=T
 IS=     7 IAt=     2 ISR=     3 T=1 IP=      1 IndIP=     21 IndIPD=      0 C=  2.226950D-01  2.050881D-01                             NZ=T
 IS=     8 IAt=     2 ISR=     4 T=2 IP=      1 IndIP=     22 IndIPD=      2 C=  0.000000D+00  0.000000D+00  1.113825D+00  0.000000D+00 NZ=T
 IS=     9 IAt=     3 ISR=     1 T=0 IP=      1 IndIP=     23 IndIPD=      0 C=  2.149354D-01  0.000000D+00                             NZ=T
 IS=     9 IAt=     3 ISR=     1 T=0 IP=      2 IndIP=     24 IndIPD=      1 C=  3.645712D-01  0.000000D+00                             NZ=T
 IS=     9 IAt=     3 ISR=     1 T=0 IP=      3 IndIP=     25 IndIPD=      2 C=  4.150514D-01  0.000000D+00                             NZ=T
 IS=    10 IAt=     3 ISR=     2 T=0 IP=      1 IndIP=     26 IndIPD=      0 C=  1.813806D-01  0.000000D+00                             NZ=T
 IS=    11 IAt=     4 ISR=     1 T=0 IP=      1 IndIP=     27 IndIPD=      0 C=  2.149354D-01  0.000000D+00                             NZ=T
 IS=    11 IAt=     4 ISR=     1 T=0 IP=      2 IndIP=     28 IndIPD=      1 C=  3.645712D-01  0.000000D+00                             NZ=T
 IS=    11 IAt=     4 ISR=     1 T=0 IP=      3 IndIP=     29 IndIPD=      2 C=  4.150514D-01  0.000000D+00                             NZ=T
 IS=    12 IAt=     4 ISR=     2 T=0 IP=      1 IndIP=     30 IndIPD=      0 C=  1.813806D-01  0.000000D+00                             NZ=T
 IS=    13 IAt=     5 ISR=     1 T=0 IP=      1 IndIP=     31 IndIPD=      0 C=  2.149354D-01  0.000000D+00                             NZ=T
 IS=    13 IAt=     5 ISR=     1 T=0 IP=      2 IndIP=     32 IndIPD=      1 C=  3.645712D-01  0.000000D+00                             NZ=T
 IS=    13 IAt=     5 ISR=     1 T=0 IP=      3 IndIP=     33 IndIPD=      2 C=  4.150514D-01  0.000000D+00                             NZ=T
 IS=    14 IAt=     5 ISR=     2 T=0 IP=      1 IndIP=     34 IndIPD=      0 C=  1.813806D-01  0.000000D+00                             NZ=T
 IS=    15 IAt=     6 ISR=     1 T=0 IP=      1 IndIP=     35 IndIPD=      0 C=  2.149354D-01  0.000000D+00                             NZ=T
 IS=    15 IAt=     6 ISR=     1 T=0 IP=      2 IndIP=     36 IndIPD=      1 C=  3.645712D-01  0.000000D+00                             NZ=T
 IS=    15 IAt=     6 ISR=     1 T=0 IP=      3 IndIP=     37 IndIPD=      2 C=  4.150514D-01  0.000000D+00                             NZ=T
 IS=    16 IAt=     6 ISR=     2 T=0 IP=      1 IndIP=     38 IndIPD=      0 C=  1.813806D-01  0.000000D+00                             NZ=T
 IS=    17 IAt=     7 ISR=     1 T=0 IP=      1 IndIP=     39 IndIPD=      0 C=  5.363452D-01  0.000000D+00                             NZ=T
 IS=    17 IAt=     7 ISR=     1 T=0 IP=      2 IndIP=     40 IndIPD=      1 C=  9.894521D-01  0.000000D+00                             NZ=T
 IS=    17 IAt=     7 ISR=     1 T=0 IP=      3 IndIP=     41 IndIPD=      2 C=  1.597283D+00  0.000000D+00                             NZ=T
 IS=    17 IAt=     7 ISR=     1 T=0 IP=      4 IndIP=     42 IndIPD=      3 C=  2.079187D+00  0.000000D+00                             NZ=T
 IS=    17 IAt=     7 ISR=     1 T=0 IP=      5 IndIP=     43 IndIPD=      4 C=  1.774174D+00  0.000000D+00                             NZ=T
 IS=    17 IAt=     7 ISR=     1 T=0 IP=      6 IndIP=     44 IndIPD=      5 C=  6.125797D-01  0.000000D+00                             NZ=T
 IS=    18 IAt=     7 ISR=     2 T=1 IP=      1 IndIP=     45 IndIPD=      0 C= -3.995564D-01  1.296082D+00                             NZ=T
 IS=    18 IAt=     7 ISR=     2 T=1 IP=      2 IndIP=     46 IndIPD=      1 C= -1.841552D-01  9.937536D-01                             NZ=T
 IS=    18 IAt=     7 ISR=     2 T=1 IP=      3 IndIP=     47 IndIPD=      2 C=  5.163903D-01  4.959527D-01                             NZ=T
 IS=    19 IAt=     7 ISR=     3 T=1 IP=      1 IndIP=     48 IndIPD=      0 C=  1.876179D-01  1.541276D-01                             NZ=T
 IS=    20 IAt=     7 ISR=     4 T=2 IP=      1 IndIP=     49 IndIPD=      3 C=  0.000000D+00  0.000000D+00  1.113825D+00  0.000000D+00 NZ=T
 IS=    21 IAt=     8 ISR=     1 T=0 IP=      1 IndIP=     50 IndIPD=      0 C=  6.789979D-01  0.000000D+00                             NZ=T
 IS=    21 IAt=     8 ISR=     1 T=0 IP=      2 IndIP=     51 IndIPD=      1 C=  1.250431D+00  0.000000D+00                             NZ=T
 IS=    21 IAt=     8 ISR=     1 T=0 IP=      3 IndIP=     52 IndIPD=      2 C=  2.020356D+00  0.000000D+00                             NZ=T
 IS=    21 IAt=     8 ISR=     1 T=0 IP=      4 IndIP=     53 IndIPD=      3 C=  2.644212D+00  0.000000D+00                             NZ=T
 IS=    21 IAt=     8 ISR=     1 T=0 IP=      5 IndIP=     54 IndIPD=      4 C=  2.265005D+00  0.000000D+00                             NZ=T
 IS=    21 IAt=     8 ISR=     1 T=0 IP=      6 IndIP=     55 IndIPD=      5 C=  7.791879D-01  0.000000D+00                             NZ=T
 IS=    22 IAt=     8 ISR=     2 T=1 IP=      1 IndIP=     56 IndIPD=      0 C= -5.158747D-01  2.068052D+00                             NZ=T
 IS=    22 IAt=     8 ISR=     2 T=1 IP=      2 IndIP=     57 IndIPD=      1 C= -2.550231D-01  1.610011D+00                             NZ=T
 IS=    22 IAt=     8 ISR=     2 T=1 IP=      3 IndIP=     58 IndIPD=      2 C=  6.727345D-01  7.644904D-01                             NZ=T
 IS=    23 IAt=     8 ISR=     3 T=1 IP=      1 IndIP=     59 IndIPD=      0 C=  2.226950D-01  2.050881D-01                             NZ=T
 IS=    24 IAt=     8 ISR=     4 T=2 IP=      1 IndIP=     60 IndIPD=      4 C=  0.000000D+00  0.000000D+00  1.113825D+00  0.000000D+00 NZ=T
 IS=    25 IAt=     9 ISR=     1 T=0 IP=      1 IndIP=     61 IndIPD=      0 C=  2.149354D-01  0.000000D+00                             NZ=T
 IS=    25 IAt=     9 ISR=     1 T=0 IP=      2 IndIP=     62 IndIPD=      1 C=  3.645712D-01  0.000000D+00                             NZ=T
 IS=    25 IAt=     9 ISR=     1 T=0 IP=      3 IndIP=     63 IndIPD=      2 C=  4.150514D-01  0.000000D+00                             NZ=T
 IS=    26 IAt=     9 ISR=     2 T=0 IP=      1 IndIP=     64 IndIPD=      0 C=  1.813806D-01  0.000000D+00                             NZ=T
 IS=    27 IAt=    10 ISR=     1 T=0 IP=      1 IndIP=     65 IndIPD=      0 C=  2.149354D-01  0.000000D+00                             NZ=T
 IS=    27 IAt=    10 ISR=     1 T=0 IP=      2 IndIP=     66 IndIPD=      1 C=  3.645712D-01  0.000000D+00                             NZ=T
 IS=    27 IAt=    10 ISR=     1 T=0 IP=      3 IndIP=     67 IndIPD=      2 C=  4.150514D-01  0.000000D+00                             NZ=T
 IS=    28 IAt=    10 ISR=     2 T=0 IP=      1 IndIP=     68 IndIPD=      0 C=  1.813806D-01  0.000000D+00                             NZ=T
 IS=    29 IAt=    11 ISR=     1 T=0 IP=      1 IndIP=     69 IndIPD=      0 C=  2.149354D-01  0.000000D+00                             NZ=T
 IS=    29 IAt=    11 ISR=     1 T=0 IP=      2 IndIP=     70 IndIPD=      1 C=  3.645712D-01  0.000000D+00                             NZ=T
 IS=    29 IAt=    11 ISR=     1 T=0 IP=      3 IndIP=     71 IndIPD=      2 C=  4.150514D-01  0.000000D+00                             NZ=T
 IS=    30 IAt=    11 ISR=     2 T=0 IP=      1 IndIP=     72 IndIPD=      0 C=  1.813806D-01  0.000000D+00                             NZ=T
 IS=    31 IAt=    12 ISR=     1 T=0 IP=      1 IndIP=     73 IndIPD=      0 C=  2.149354D-01  0.000000D+00                             NZ=T
 IS=    31 IAt=    12 ISR=     1 T=0 IP=      2 IndIP=     74 IndIPD=      1 C=  3.645712D-01  0.000000D+00                             NZ=T
 IS=    31 IAt=    12 ISR=     1 T=0 IP=      3 IndIP=     75 IndIPD=      2 C=  4.150514D-01  0.000000D+00                             NZ=T
 IS=    32 IAt=    12 ISR=     2 T=0 IP=      1 IndIP=     76 IndIPD=      0 C=  1.813806D-01  0.000000D+00                             NZ=T
 NAtoms=   12 NActive=   12 NUniq=   12 SFac= 1.00D+00 NAtFMM=   60 NAOKFM=F Big=F
 Integral buffers will be    131072 words long.
 Raffenetti 1 integral format.
 Two-electron integral symmetry is turned off.
 NPDir=0 NMtPBC=     1 NCelOv=     1 NCel=       1 NClECP=     1 NCelD=      1
         NCelK=      1 NCelE2=     1 NClLst=     1 CellRange=     0.0.
 One-electron integrals computed using PRISM.
 Entering OneElI...
 Calculate overlap and kinetic energy integrals
    NBasis =  76  MinDer = 0  MaxDer = 0
 Requested accuracy = 0.1000D-12
 PrsmSu:  NPrtUS=   2 ThrOK=T IAlg=1 NPAlg=2 LenDen=           0.
 Prism:   IPart=     0 DynPar=F LinDyn=F Incr=           2.
 PRISM was handed    67062643 working-precision words and   528 shell-pairs
 PRISM was handed    67062643 working-precision words and   528 shell-pairs
 IPart=  1 NShTot=         262 NBatch=          25 AvBLen=        10.5
 IPart=  0 NShTot=         266 NBatch=          27 AvBLen=         9.9
 PrSmSu:  NxtVal=              5.
 *** Overlap *** 
                1             2             3             4             5 
      1  0.100000D+01
      2  0.219059D+00  0.100000D+01
      3  0.000000D+00  0.000000D+00  0.100000D+01
      4  0.000000D+00  0.000000D+00  0.000000D+00  0.100000D+01
      5  0.000000D+00  0.000000D+00  0.000000D+00  0.000000D+00  0.100000D+01
      6  0.184261D+00  0.812273D+00  0.000000D+00  0.000000D+00  0.000000D+00
      7  0.000000D+00  0.000000D+00  0.569754D+00  0.000000D+00  0.000000D+00
      8  0.000000D+00  0.000000D+00  0.000000D+00  0.569754D+00  0.000000D+00
      9  0.000000D+00  0.000000D+00  0.000000D+00  0.000000D+00  0.569754D+00
     10  0.791027D-01  0.710235D+00  0.000000D+00  0.000000D+00  0.000000D+00
     11  0.791027D-01  0.710235D+00  0.000000D+00  0.000000D+00  0.000000D+00
     12  0.791027D-01  0.710235D+00  0.000000D+00  0.000000D+00  0.000000D+00
     13  0.000000D+00  0.000000D+00  0.000000D+00  0.000000D+00  0.000000D+00
     14  0.000000D+00  0.000000D+00  0.000000D+00  0.000000D+00  0.000000D+00
     15  0.000000D+00  0.000000D+00  0.000000D+00  0.000000D+00  0.000000D+00
     16  0.170047D-04  0.320470D-01  0.627530D-01 -0.959337D-02  0.267778D-02
     17  0.220137D-01  0.240871D+00  0.340739D+00 -0.520905D-01  0.145399D-01
     18 -0.468242D-01 -0.284796D+00 -0.332124D+00  0.719878D-01 -0.200938D-01
     19  0.715824D-02  0.435382D-01  0.719878D-01  0.127764D+00  0.307184D-02
     20 -0.199806D-02 -0.121527D-01 -0.200938D-01  0.307184D-02  0.137912D+00
     21  0.803495D-01  0.425121D+00  0.308677D+00 -0.471891D-01  0.131718D-01
     22 -0.154172D+00 -0.599607D+00 -0.152145D+00  0.702583D-01 -0.196110D-01
     23  0.235691D-01  0.916650D-01  0.702583D-01  0.296694D+00  0.299804D-02
     24 -0.657880D-02 -0.255862D-01 -0.196110D-01  0.299804D-02  0.306598D+00
     25  0.115188D+00  0.434095D+00  0.443715D+00 -0.116955D+00  0.326453D-01
     26  0.581913D-02  0.160862D+00  0.220632D+00  0.153928D-01  0.941472D-02
     27  0.340585D-02  0.154833D+00  0.208619D+00 -0.318926D-01 -0.480915D-02
     28 -0.296524D-01 -0.740798D-01 -0.105060D+00 -0.255707D+00 -0.629837D-02
     29  0.827681D-02  0.206777D-01  0.293252D-01 -0.629837D-02 -0.276514D+00
     30 -0.126532D-02 -0.316111D-02 -0.629837D-02 -0.109115D-01  0.422720D-01
     31  0.295906D-01  0.259562D+00 -0.142793D+00 -0.764879D-01  0.315811D+00
     32  0.896647D-01  0.465840D+00 -0.106690D+00 -0.571488D-01  0.235962D+00
     33  0.385804D-01  0.298181D+00 -0.248429D-02 -0.180406D+00 -0.349621D+00
     34  0.964634D-01  0.493297D+00 -0.168063D-02 -0.122045D+00 -0.236520D+00
     35  0.265472D-04  0.608290D-02  0.124409D-01 -0.117912D-03 -0.492871D-02
     36  0.124428D-01  0.985761D-01  0.969754D-01 -0.919108D-03 -0.384188D-01
     37  0.130427D-02  0.493430D-01  0.726552D-01  0.304640D-01  0.397972D-01
     38  0.374789D-01  0.234894D+00  0.161280D+00  0.676241D-01  0.883420D-01
     39  0.999540D+00  0.219094D+00  0.832731D-02 -0.361205D-02 -0.372412D-02
     40  0.219094D+00  0.999974D+00  0.392417D-02 -0.170215D-02 -0.175496D-02
     41 -0.832731D-02 -0.392417D-02  0.999909D+00  0.232020D-04  0.239219D-04
     42  0.361205D-02  0.170215D-02  0.232020D-04  0.999953D+00 -0.103764D-04
     43  0.372412D-02  0.175496D-02  0.239219D-04 -0.103764D-04  0.999952D+00
     44  0.184259D+00  0.812265D+00  0.183366D-02 -0.795368D-03 -0.820045D-03
     45 -0.114390D-02 -0.390056D-02  0.569739D+00  0.401226D-05  0.413674D-05
     46  0.496180D-03  0.169191D-02  0.401226D-05  0.569746D+00 -0.179435D-05
     47  0.511575D-03  0.174440D-02  0.413674D-05 -0.179435D-05  0.569746D+00
     48  0.791401D-01  0.710225D+00 -0.374569D-02 -0.175600D-02 -0.181048D-02
     49  0.791061D-01  0.710218D+00  0.404815D-02  0.162480D-02 -0.181041D-02
     50  0.791066D-01  0.710218D+00  0.404816D-02 -0.175593D-02  0.167521D-02
     51 -0.314514D-04 -0.593993D-05  0.292765D-02 -0.674974D-02  0.000000D+00
     52 -0.324272D-04 -0.612422D-05  0.301848D-02  0.000000D+00 -0.674974D-02
     53  0.140656D-04  0.265644D-05  0.000000D+00  0.301861D-02  0.292777D-02
     54  0.174355D-04  0.322616D-01  0.631135D-01 -0.957060D-02  0.263196D-02
     55  0.222075D-01  0.241829D+00  0.341861D+00 -0.518403D-01  0.142563D-01
     56 -0.471899D-01 -0.285658D+00 -0.332762D+00  0.716045D-01 -0.196915D-01
     57  0.715594D-02  0.433175D-01  0.716045D-01  0.128577D+00  0.298605D-02
     58 -0.196791D-02 -0.119125D-01 -0.196915D-01  0.298605D-02  0.138614D+00
     59  0.805681D-01  0.425971D+00  0.308972D+00 -0.468529D-01  0.128847D-01
     60 -0.154414D+00 -0.600104D+00 -0.151411D+00  0.696782D-01 -0.191618D-01
     61  0.234155D-01  0.910004D-01  0.696782D-01  0.297517D+00  0.290572D-02
     62 -0.643936D-02 -0.250255D-01 -0.191618D-01  0.290572D-02  0.307284D+00
     63  0.115986D+00  0.435140D+00  0.444183D+00 -0.116264D+00  0.319732D-01
     64  0.582297D-02  0.161427D+00  0.221143D+00  0.153735D-01  0.922212D-02
     65  0.342624D-02  0.155472D+00  0.209274D+00 -0.317346D-01 -0.472274D-02
     66 -0.296153D-01 -0.735828D-01 -0.104309D+00 -0.257073D+00 -0.611621D-02
     67  0.814434D-02  0.202356D-01  0.286855D-01 -0.611621D-02 -0.277632D+00
     68 -0.123502D-02 -0.306855D-02 -0.611621D-02 -0.107205D-01  0.421004D-01
     69  0.284147D-01  0.254097D+00 -0.138238D+00 -0.689343D-01  0.313231D+00
     70  0.886659D-01  0.461769D+00 -0.104853D+00 -0.522863D-01  0.237584D+00
     71  0.391241D-01  0.300362D+00 -0.425054D-02 -0.182685D+00 -0.350775D+00
     72  0.968349D-01  0.494785D+00 -0.286035D-02 -0.122936D+00 -0.236050D+00
     73  0.268448D-04  0.611961D-02  0.124879D-01 -0.144649D-03 -0.500984D-02
     74  0.124824D-01  0.988233D-01  0.969990D-01 -0.112356D-02 -0.389138D-01
     75  0.145280D-02  0.522743D-01  0.756783D-01  0.314381D-01  0.436865D-01
     76  0.386335D-01  0.240564D+00  0.162067D+00  0.673255D-01  0.935556D-01
                6             7             8             9            10 
      6  0.100000D+01
      7  0.000000D+00  0.100000D+01
      8  0.000000D+00  0.000000D+00  0.100000D+01
      9  0.000000D+00  0.000000D+00  0.000000D+00  0.100000D+01
     10  0.629936D+00  0.000000D+00  0.000000D+00  0.000000D+00  0.100000D+01
     11  0.629936D+00  0.000000D+00  0.000000D+00  0.000000D+00  0.333333D+00
     12  0.629936D+00  0.000000D+00  0.000000D+00  0.000000D+00  0.333333D+00
     13  0.000000D+00  0.000000D+00  0.000000D+00  0.000000D+00  0.000000D+00
     14  0.000000D+00  0.000000D+00  0.000000D+00  0.000000D+00  0.000000D+00
     15  0.000000D+00  0.000000D+00  0.000000D+00  0.000000D+00  0.000000D+00
     16  0.656500D-01  0.114526D+00 -0.175082D-01  0.488702D-02  0.900614D-01
     17  0.361119D+00  0.523698D+00 -0.800603D-01  0.223471D-01  0.413604D+00
     18 -0.195128D+00 -0.735717D-01  0.445538D-01 -0.124362D-01 -0.412191D+00
     19  0.298302D-01  0.445538D-01  0.211056D+00  0.190118D-02  0.105554D+00
     20 -0.832645D-02 -0.124362D-01  0.190118D-02  0.217337D+00 -0.294631D-01
     21  0.626423D+00  0.624872D+00 -0.955272D-01  0.266643D-01  0.421172D+00
     22 -0.557400D+00  0.663370D-01  0.850014D-01 -0.237263D-01 -0.419411D+00
     23  0.852125D-01  0.850014D-01  0.609361D+00  0.362715D-02  0.102205D+00
     24 -0.237852D-01 -0.237263D-01  0.362715D-02  0.621344D+00 -0.285283D-01
     25  0.408660D+00  0.405230D+00 -0.924168D-01  0.257961D-01  0.467751D+00
     26  0.321499D+00  0.475589D+00 -0.422383D-01  0.202942D-01  0.248133D+00
     27  0.319576D+00  0.472744D+00 -0.722707D-01  0.116685D-01  0.229455D+00
     28 -0.236315D-01 -0.857237D-02 -0.167251D+00 -0.149171D-02 -0.133949D+00
     29  0.659622D-02  0.239279D-02 -0.149171D-02 -0.172178D+00  0.373888D-01
     30 -0.100840D-02 -0.149171D-02 -0.713687D-02  0.263218D-01 -0.979331D-02
     31  0.367951D+00 -0.206408D+00 -0.110563D+00  0.456506D+00  0.163307D+00
     32  0.694198D+00 -0.235792D+00 -0.126303D+00  0.521494D+00  0.356225D+00
     33  0.392233D+00 -0.326579D-02 -0.237157D+00 -0.459604D+00  0.130696D+00
     34  0.721583D+00 -0.363702D-02 -0.264116D+00 -0.511849D+00  0.365239D+00
     35  0.657122D-01  0.166686D+00 -0.157980D-02 -0.660359D-01  0.111798D-01
     36  0.243940D+00  0.376576D+00 -0.356909D-02 -0.149188D+00  0.112505D+00
     37  0.171763D+00  0.296095D+00  0.124152D+00  0.162188D+00  0.739915D-01
     38  0.437425D+00  0.457680D+00  0.191903D+00  0.250696D+00  0.221137D+00
     39  0.184259D+00  0.114390D-02 -0.496180D-03 -0.511575D-03  0.791401D-01
     40  0.812265D+00  0.390056D-02 -0.169191D-02 -0.174440D-02  0.710225D+00
     41 -0.183366D-02  0.569739D+00  0.401226D-05  0.413674D-05  0.374569D-02
     42  0.795368D-03  0.401226D-05  0.569746D+00 -0.179435D-05  0.175600D-02
     43  0.820045D-03  0.413674D-05 -0.179435D-05  0.569746D+00  0.181048D-02
     44  0.999993D+00  0.321835D-02 -0.139599D-02 -0.143930D-02  0.629931D+00
     45 -0.321835D-02  0.999982D+00  0.449281D-05  0.463220D-05 -0.193617D-02
     46  0.139599D-02  0.449281D-05  0.999991D+00 -0.200927D-05  0.145246D-02
     47  0.143930D-02  0.463220D-05 -0.200927D-05  0.999991D+00  0.149752D-02
     48  0.629931D+00  0.193617D-02 -0.145246D-02 -0.149752D-02  0.999933D+00
     49  0.629929D+00  0.334851D-02 -0.839828D-03 -0.149751D-02  0.333341D+00
     50  0.629929D+00  0.334851D-02 -0.145245D-02 -0.865884D-03  0.333342D+00
     51 -0.170750D-05  0.530538D-03 -0.122313D-02  0.000000D+00  0.122988D-04
     52 -0.176047D-05  0.546999D-03  0.000000D+00 -0.122313D-02  0.126804D-04
     53  0.000000D+00  0.000000D+00  0.547006D-03  0.530546D-03  0.550078D-05
     54  0.657947D-01  0.114646D+00 -0.173851D-01  0.478098D-02  0.907182D-01
     55  0.361781D+00  0.524051D+00 -0.794676D-01  0.218539D-01  0.414911D+00
     56 -0.195271D+00 -0.730387D-01  0.441757D-01 -0.121485D-01 -0.412834D+00
     57  0.296112D-01  0.441757D-01  0.211580D+00  0.184221D-02  0.104991D+00
     58 -0.814319D-02 -0.121485D-01  0.184221D-02  0.217772D+00 -0.288729D-01
     59  0.627213D+00  0.624938D+00 -0.947663D-01  0.260611D-01  0.421830D+00
     60 -0.557459D+00  0.677039D-01  0.842271D-01 -0.231628D-01 -0.419411D+00
     61  0.845337D-01  0.842271D-01  0.610368D+00  0.351243D-02  0.101422D+00
     62 -0.232471D-01 -0.231628D-01  0.351243D-02  0.622174D+00 -0.278914D-01
     63  0.409218D+00  0.405215D+00 -0.916903D-01  0.252152D-01  0.467925D+00
     64  0.322062D+00  0.475872D+00 -0.419188D-01  0.198448D-01  0.248639D+00
     65  0.320166D+00  0.473070D+00 -0.717369D-01  0.114110D-01  0.230193D+00
     66 -0.234305D-01 -0.842927D-02 -0.167468D+00 -0.144374D-02 -0.132857D+00
     67  0.644349D-02  0.231808D-02 -0.144374D-02 -0.172321D+00  0.365363D-01
     68 -0.977099D-03 -0.144374D-02 -0.698375D-02  0.261310D-01 -0.950517D-02
     69  0.364365D+00 -0.202718D+00 -0.101088D+00  0.459335D+00  0.158112D+00
     70  0.690093D+00 -0.232480D+00 -0.115930D+00  0.526774D+00  0.352589D+00
     71  0.393554D+00 -0.555950D-02 -0.238943D+00 -0.458796D+00  0.131901D+00
     72  0.723053D+00 -0.618319D-02 -0.265749D+00 -0.510266D+00  0.366456D+00
     73  0.658941D-01  0.166758D+00 -0.193158D-02 -0.668994D-01  0.112146D-01
     74  0.244350D+00  0.376329D+00 -0.435908D-02 -0.150975D+00  0.112580D+00
     75  0.176371D+00  0.298081D+00  0.123828D+00  0.172072D+00  0.769789D-01
     76  0.444509D+00  0.455945D+00  0.189408D+00  0.263201D+00  0.224620D+00
               11            12            13            14            15 
     11  0.100000D+01
     12  0.333333D+00  0.100000D+01
     13  0.000000D+00  0.000000D+00  0.100000D+01
     14  0.000000D+00  0.000000D+00  0.000000D+00  0.100000D+01
     15  0.000000D+00  0.000000D+00  0.000000D+00  0.000000D+00  0.100000D+01
     16  0.379709D-02  0.189361D-02 -0.233883D-01  0.652833D-02 -0.998018D-03
     17  0.104785D+00  0.979711D-01 -0.837280D-01  0.233708D-01 -0.357281D-02
     18 -0.143399D+00 -0.131328D+00  0.111480D+00 -0.311172D-01  0.632911D-02
     19 -0.206182D-01  0.200767D-01  0.218313D+00  0.632911D-02  0.931580D-02
     20 -0.611908D-02  0.627023D-02  0.632911D-02  0.239221D+00 -0.365710D-01
     21  0.299019D+00  0.296324D+00 -0.331184D-01  0.924428D-02 -0.141322D-02
     22 -0.474654D+00 -0.470375D+00  0.195861D-01 -0.546701D-02  0.224330D-02
     23  0.344748D-01  0.719086D-01  0.207728D+00  0.224330D-02  0.886412D-02
     24 -0.202543D-01 -0.944029D-02  0.224330D-02  0.215139D+00 -0.328894D-01
     25  0.248133D+00  0.229455D+00 -0.133949D+00  0.373888D-01 -0.979331D-02
     26  0.134257D+00  0.520135D-01  0.435305D-01  0.145215D-01  0.185752D-02
     27  0.520135D-01  0.141662D+00 -0.481085D-01 -0.132437D-01  0.202463D-02
     28  0.435305D-01 -0.481085D-01 -0.363528D+00 -0.990007D-02 -0.210454D-01
     29  0.145215D-01 -0.132437D-01 -0.990007D-02 -0.396233D+00  0.821800D-01
     30  0.185752D-02  0.202463D-02 -0.210454D-01  0.821800D-01  0.128767D+00
     31  0.125446D+00  0.369926D+00  0.492607D-01 -0.203393D+00 -0.108948D+00
     32  0.346754D+00  0.407915D+00  0.123235D-01 -0.508827D-01 -0.272556D-01
     33  0.205295D+00  0.410910D+00  0.177963D-02  0.344887D-02  0.250452D+00
     34  0.381663D+00  0.426932D+00  0.391812D-03  0.759320D-03  0.551408D-01
     35  0.118222D-02  0.275059D-02 -0.164134D-03 -0.686083D-02  0.650251D-04
     36  0.625057D-01  0.703494D-01 -0.820863D-03 -0.343121D-01  0.325201D-03
     37  0.251517D-01  0.325130D-01  0.430356D-01  0.562203D-01  0.235730D-01
     38  0.172154D+00  0.179537D+00  0.431617D-01  0.563851D-01  0.236420D-01
     39  0.791061D-01  0.791066D-01 -0.314514D-04 -0.324272D-04  0.140656D-04
     40  0.710218D+00  0.710218D+00 -0.593993D-05 -0.612422D-05  0.265644D-05
     41 -0.404815D-02 -0.404816D-02 -0.292765D-02 -0.301848D-02  0.000000D+00
     42 -0.162480D-02  0.175593D-02  0.674974D-02  0.000000D+00 -0.301861D-02
     43  0.181041D-02 -0.167521D-02  0.000000D+00  0.674974D-02 -0.292777D-02
     44  0.629929D+00  0.629929D+00 -0.170750D-05 -0.176047D-05  0.000000D+00
     45 -0.334851D-02 -0.334851D-02 -0.530538D-03 -0.546999D-03  0.000000D+00
     46  0.839828D-03  0.145245D-02  0.122313D-02  0.000000D+00 -0.547006D-03
     47  0.149751D-02  0.865884D-03  0.000000D+00  0.122313D-02 -0.530546D-03
     48  0.333341D+00  0.333342D+00  0.122988D-04  0.126804D-04  0.550078D-05
     49  0.999960D+00  0.333328D+00  0.122993D-04 -0.126811D-04 -0.550046D-05
     50  0.333328D+00  0.999959D+00 -0.122995D-04  0.126809D-04 -0.550045D-05
     51  0.122993D-04 -0.122995D-04  0.999908D+00 -0.952669D-05  0.219639D-04
     52 -0.126811D-04  0.126809D-04 -0.952669D-05  0.999907D+00  0.213030D-04
     53 -0.550046D-05 -0.550045D-05  0.219639D-04  0.213030D-04  0.999947D+00
     54  0.379472D-02  0.190359D-02 -0.233678D-01  0.642625D-02 -0.974484D-03
     55  0.105194D+00  0.984556D-01 -0.832618D-01  0.228973D-01 -0.347218D-02
     56 -0.143773D+00 -0.131838D+00  0.110770D+00 -0.304621D-01  0.615016D-02
     57 -0.205864D-01  0.199920D-01  0.219717D+00  0.615016D-02  0.916261D-02
     58 -0.599561D-02  0.615908D-02  0.615016D-02  0.240389D+00 -0.364529D-01
     59  0.299638D+00  0.296980D+00 -0.328491D-01  0.903365D-02 -0.136987D-02
     60 -0.475088D+00 -0.470872D+00  0.193289D-01 -0.531553D-02  0.217199D-02
     61  0.342210D-01  0.714037D-01  0.208103D+00  0.217199D-02  0.867831D-02
     62 -0.198121D-01 -0.923514D-02  0.217199D-02  0.215404D+00 -0.326641D-01
     63  0.248639D+00  0.230193D+00 -0.132857D+00  0.365363D-01 -0.950517D-02
     64  0.135121D+00  0.521979D-01  0.433888D-01  0.142136D-01  0.180940D-02
     65  0.521979D-01  0.142454D+00 -0.478507D-01 -0.129866D-01  0.196930D-02
     66  0.433888D-01 -0.478507D-01 -0.364992D+00 -0.959626D-02 -0.206670D-01
     67  0.142136D-01 -0.129866D-01 -0.959626D-02 -0.397248D+00  0.817931D-01
     68  0.180940D-02  0.196930D-02 -0.206670D-01  0.817931D-01  0.129734D+00
     69  0.119992D+00  0.367867D+00  0.438214D-01 -0.199121D+00 -0.992942D-01
     70  0.342866D+00  0.406089D+00  0.111771D-01 -0.507879D-01 -0.253261D-01
     71  0.207856D+00  0.412043D+00  0.306262D-02  0.588056D-02  0.252742D+00
     72  0.383066D+00  0.427717D+00  0.669718D-03  0.128593D-02  0.552684D-01
     73  0.119127D-02  0.280332D-02 -0.201121D-03 -0.696572D-02  0.806850D-04
     74  0.626792D-01  0.707047D-01 -0.100127D-02 -0.346785D-01  0.401686D-03
     75  0.263541D-01  0.361840D-01  0.440229D-01  0.611743D-01  0.254129D-01
     76  0.176108D+00  0.185527D+00  0.421858D-01  0.586214D-01  0.243524D-01
               16            17            18            19            20 
     16  0.100000D+01
     17  0.222216D+00  0.100000D+01
     18  0.000000D+00  0.000000D+00  0.100000D+01
     19  0.000000D+00  0.000000D+00  0.000000D+00  0.100000D+01
     20  0.000000D+00  0.000000D+00  0.000000D+00  0.000000D+00  0.100000D+01
     21  0.171869D+00  0.775507D+00  0.000000D+00  0.000000D+00  0.000000D+00
     22  0.000000D+00  0.000000D+00  0.519296D+00  0.000000D+00  0.000000D+00
     23  0.000000D+00  0.000000D+00  0.000000D+00  0.519296D+00  0.000000D+00
     24  0.000000D+00  0.000000D+00  0.000000D+00  0.000000D+00  0.519296D+00
     25  0.504134D-01  0.636041D+00  0.000000D+00  0.000000D+00  0.000000D+00
     26  0.504134D-01  0.636041D+00  0.000000D+00  0.000000D+00  0.000000D+00
     27  0.504134D-01  0.636041D+00  0.000000D+00  0.000000D+00  0.000000D+00
     28  0.000000D+00  0.000000D+00  0.000000D+00  0.000000D+00  0.000000D+00
     29  0.000000D+00  0.000000D+00  0.000000D+00  0.000000D+00  0.000000D+00
     30  0.000000D+00  0.000000D+00  0.000000D+00  0.000000D+00  0.000000D+00
     31  0.230650D-03  0.122907D-01 -0.201602D-01 -0.798170D-03  0.118439D-01
     32  0.203599D-01  0.135424D+00 -0.952782D-01 -0.377219D-02  0.559749D-01
     33  0.198022D-02  0.454565D-01 -0.566958D-01 -0.149510D-01 -0.480810D-01
     34  0.366135D-01  0.221559D+00 -0.114384D+00 -0.301636D-01 -0.970033D-01
     35  0.121222D-01  0.137257D+00  0.139833D+00  0.249422D-01 -0.135785D+00
     36  0.599087D-01  0.334733D+00  0.132652D+00  0.236613D-01 -0.128811D+00
     37  0.286093D-01  0.232309D+00  0.637465D-01  0.213611D+00  0.199888D+00
     38  0.755564D-01  0.406532D+00  0.414198D-01  0.138796D+00  0.129879D+00
     39  0.181764D-04  0.225336D-01 -0.477794D-01  0.725588D-02 -0.212324D-02
     40  0.326216D-01  0.243431D+00 -0.286945D+00  0.435760D-01 -0.127514D-01
     41  0.636841D-01  0.343554D+00 -0.333325D+00  0.719635D-01 -0.210582D-01
     42 -0.967119D-02 -0.521729D-01  0.719635D-01  0.129621D+00  0.319794D-02
     43  0.283002D-02  0.152670D-01 -0.210582D-01  0.319794D-02  0.139614D+00
     44  0.660362D-01  0.362884D+00 -0.195406D+00  0.296748D-01 -0.868353D-02
     45  0.114786D+00  0.524361D+00 -0.718439D-01  0.441627D-01 -0.129231D-01
     46 -0.174316D-01 -0.796304D-01  0.441627D-01  0.212258D+00  0.196252D-02
     47  0.510091D-02  0.233017D-01 -0.129231D-01  0.196252D-02  0.218390D+00
     48  0.917261D-01  0.416757D+00 -0.413092D+00  0.105481D+00 -0.308662D-01
     49  0.385038D-02  0.106090D+00 -0.144698D+00 -0.207739D-01 -0.643015D-02
     50  0.195358D-02  0.993844D-01 -0.132829D+00  0.201716D-01  0.660639D-02
     51 -0.236598D-01 -0.836447D-01  0.111032D+00  0.221296D+00  0.657922D-02
     52  0.692342D-02  0.244764D-01 -0.324905D-01  0.657922D-02  0.241855D+00
     53 -0.105140D-02 -0.371704D-02  0.657922D-02  0.983405D-02 -0.367285D-01
     54  0.999846D+00  0.222228D+00 -0.323708D-02  0.395397D-02 -0.285686D-02
     55  0.222228D+00  0.999991D+00 -0.148126D-02  0.180930D-02 -0.130728D-02
     56  0.323708D-02  0.148126D-02  0.999979D+00  0.967733D-05 -0.699216D-05
     57 -0.395397D-02 -0.180930D-02  0.967733D-05  0.999975D+00  0.854066D-05
     58  0.285686D-02  0.130728D-02 -0.699216D-05  0.854066D-05  0.999981D+00
     59  0.171868D+00  0.775504D+00 -0.601302D-03  0.734467D-03 -0.530674D-03
     60  0.385171D-03  0.138097D-02  0.519293D+00  0.136543D-05  0.000000D+00
     61 -0.470472D-03 -0.168680D-02  0.136543D-05  0.519292D+00  0.120505D-05
     62  0.339930D-03  0.121877D-02  0.000000D+00  0.120505D-05  0.519293D+00
     63  0.504165D-01  0.636038D+00  0.167767D-02  0.134828D-02 -0.974174D-03
     64  0.504184D-01  0.636039D+00 -0.110383D-02 -0.204921D-02 -0.974178D-03
     65  0.504156D-01  0.636038D+00 -0.110382D-02  0.134828D-02  0.148062D-02
     66 -0.812971D-05 -0.406031D-05 -0.294230D-02  0.240883D-02  0.000000D+00
     67  0.587396D-05  0.293370D-05  0.212590D-02  0.000000D+00  0.240884D-02
     68 -0.717482D-05 -0.358340D-05  0.000000D+00  0.212590D-02 -0.294231D-02
     69  0.222923D-03  0.120384D-01 -0.196907D-01 -0.554789D-03  0.117914D-01
     70  0.201710D-01  0.134369D+00 -0.943014D-01 -0.265696D-02  0.564707D-01
     71  0.196966D-02  0.453089D-01 -0.567278D-01 -0.149972D-01 -0.476841D-01
     72  0.365602D-01  0.221289D+00 -0.114696D+00 -0.303224D-01 -0.964108D-01
     73  0.120078D-01  0.136462D+00  0.138205D+00  0.241184D-01 -0.136238D+00
     74  0.597549D-01  0.334013D+00  0.131645D+00  0.229735D-01 -0.129771D+00
     75  0.286268D-01  0.232397D+00  0.560921D-01  0.208995D+00  0.207062D+00
     76  0.755689D-01  0.406588D+00  0.364362D-01  0.135759D+00  0.134503D+00
               21            22            23            24            25 
     21  0.100000D+01
     22  0.000000D+00  0.100000D+01
     23  0.000000D+00  0.000000D+00  0.100000D+01
     24  0.000000D+00  0.000000D+00  0.000000D+00  0.100000D+01
     25  0.670250D+00  0.000000D+00  0.000000D+00  0.000000D+00  0.100000D+01
     26  0.670250D+00  0.000000D+00  0.000000D+00  0.000000D+00  0.333333D+00
     27  0.670250D+00  0.000000D+00  0.000000D+00  0.000000D+00  0.333333D+00
     28  0.000000D+00  0.000000D+00  0.000000D+00  0.000000D+00  0.000000D+00
     29  0.000000D+00  0.000000D+00  0.000000D+00  0.000000D+00  0.000000D+00
     30  0.000000D+00  0.000000D+00  0.000000D+00  0.000000D+00  0.000000D+00
     31  0.994691D-01 -0.212159D+00 -0.839965D-02  0.124641D+00  0.408496D-01
     32  0.318564D+00 -0.383592D+00 -0.151869D-01  0.225356D+00  0.177332D+00
     33  0.182409D+00 -0.282651D+00 -0.745369D-01 -0.239703D+00  0.954817D-01
     34  0.448422D+00 -0.391262D+00 -0.103178D+00 -0.331811D+00  0.246595D+00
     35  0.303778D+00  0.358135D+00  0.638810D-01 -0.347767D+00  0.210713D+00
     36  0.597404D+00  0.395628D+00  0.705687D-01 -0.384174D+00  0.342559D+00
     37  0.386485D+00  0.116637D+00  0.390844D+00  0.365734D+00  0.144647D+00
     38  0.683874D+00  0.115792D+00  0.388012D+00  0.363084D+00  0.366708D+00
     39  0.809328D-01 -0.154734D+00  0.234982D-01 -0.687614D-02  0.117205D+00
     40  0.427387D+00 -0.600613D+00  0.912103D-01 -0.266903D-01  0.436586D+00
     41  0.309299D+00 -0.149702D+00  0.696845D-01 -0.203913D-01  0.444137D+00
     42 -0.469708D-01  0.696845D-01  0.298583D+00  0.309667D-02 -0.116706D+00
     43  0.137448D-01 -0.203913D-01  0.309667D-02  0.308259D+00  0.341510D-01
     44  0.628528D+00 -0.557263D+00  0.846270D-01 -0.247639D-01  0.410055D+00
     45  0.624718D+00  0.705621D-01  0.841141D-01 -0.246138D-01  0.404839D+00
     46 -0.948709D-01  0.841141D-01  0.611673D+00  0.373789D-02 -0.917867D-01
     47  0.277615D-01 -0.246138D-01  0.373789D-02  0.623353D+00  0.268589D-01
     48  0.422797D+00 -0.418984D+00  0.101554D+00 -0.297170D-01  0.467152D+00
     49  0.300754D+00 -0.475692D+00  0.343137D-01 -0.211390D-01  0.249857D+00
     50  0.298120D+00 -0.471525D+00  0.716068D-01 -0.985584D-02  0.231555D+00
     51 -0.328590D-01  0.191272D-01  0.208388D+00  0.230955D-02 -0.132702D+00
     52  0.961531D-02 -0.559706D-02  0.230955D-02  0.215604D+00  0.388318D-01
     53 -0.146020D-02  0.230955D-02  0.926041D-02 -0.327421D-01 -0.101452D-01
     54  0.171868D+00 -0.385171D-03  0.470472D-03 -0.339930D-03  0.504165D-01
     55  0.775504D+00 -0.138097D-02  0.168680D-02 -0.121877D-02  0.636038D+00
     56  0.601302D-03  0.519293D+00  0.136543D-05  0.000000D+00 -0.167767D-02
     57 -0.734467D-03  0.136543D-05  0.519292D+00  0.120505D-05 -0.134828D-02
     58  0.530674D-03  0.000000D+00  0.120505D-05  0.519293D+00  0.974174D-03
     59  0.999998D+00 -0.115792D-02  0.141435D-02 -0.102191D-02  0.670248D+00
     60  0.115792D-02  0.999996D+00  0.163771D-05 -0.118330D-05  0.576589D-03
     61 -0.141435D-02  0.163771D-05  0.999996D+00  0.144535D-05 -0.149872D-02
     62  0.102191D-02 -0.118330D-05  0.144535D-05  0.999997D+00  0.108287D-02
     63  0.670248D+00 -0.576589D-03  0.149872D-02 -0.108287D-02  0.999988D+00
     64  0.670249D+00 -0.122699D-02  0.704282D-03 -0.108287D-02  0.333335D+00
     65  0.670248D+00 -0.122699D-02  0.149872D-02 -0.508864D-03  0.333334D+00
     66  0.000000D+00 -0.688004D-03  0.563262D-03  0.000000D+00  0.356748D-05
     67  0.000000D+00  0.497103D-03  0.000000D+00  0.563263D-03 -0.257761D-05
     68  0.000000D+00  0.000000D+00  0.497103D-03 -0.688004D-03 -0.314849D-05
     69  0.985169D-01 -0.209639D+00 -0.590663D-02  0.125539D+00  0.398302D-01
     70  0.316839D+00 -0.380642D+00 -0.107247D-01  0.227941D+00  0.175660D+00
     71  0.182135D+00 -0.283349D+00 -0.749096D-01 -0.238177D+00  0.957213D-01
     72  0.448041D+00 -0.392489D+00 -0.103763D+00 -0.329917D+00  0.246695D+00
     73  0.302969D+00  0.355250D+00  0.619954D-01 -0.350194D+00  0.207957D+00
     74  0.596510D+00  0.392905D+00  0.685666D-01 -0.387313D+00  0.341329D+00
     75  0.386552D+00  0.102606D+00  0.382304D+00  0.378768D+00  0.141085D+00
     76  0.683940D+00  0.101855D+00  0.379505D+00  0.375995D+00  0.365954D+00
               26            27            28            29            30 
     26  0.100000D+01
     27  0.333333D+00  0.100000D+01
     28  0.000000D+00  0.000000D+00  0.100000D+01
     29  0.000000D+00  0.000000D+00  0.000000D+00  0.100000D+01
     30  0.000000D+00  0.000000D+00  0.000000D+00  0.000000D+00  0.100000D+01
     31  0.651115D-02  0.183275D-01  0.235843D-02 -0.349963D-01 -0.138555D-02
     32  0.118655D+00  0.138847D+00  0.403007D-02 -0.598016D-01 -0.236762D-02
     33  0.294200D-01  0.755447D-01  0.324290D-01  0.104288D+00  0.275015D-01
     34  0.199210D+00  0.232294D+00  0.232607D-01  0.748040D-01  0.197263D-01
     35  0.797105D-01  0.202993D+00  0.418032D-01 -0.227576D+00 -0.405930D-01
     36  0.299316D+00  0.340010D+00  0.137989D-01 -0.751209D-01 -0.133994D-01
     37  0.308077D+00  0.285766D+00  0.927327D-01  0.867751D-01  0.290779D+00
     38  0.403114D+00  0.398144D+00  0.206573D-01  0.193302D-01  0.647745D-01
     39  0.590502D-02  0.350259D-02 -0.299667D-01  0.876897D-02 -0.133167D-02
     40  0.162558D+00  0.156643D+00 -0.737798D-01  0.215897D-01 -0.327865D-02
     41  0.222255D+00  0.210464D+00 -0.104413D+00  0.305538D-01 -0.653567D-02
     42  0.155066D-01 -0.319615D-01 -0.258574D+00 -0.653567D-02 -0.114906D-01
     43  0.987666D-02 -0.506157D-02 -0.653567D-02 -0.278996D+00  0.423689D-01
     44  0.323059D+00  0.321182D+00 -0.234228D-01  0.685405D-02 -0.104087D-02
     45  0.476180D+00  0.473412D+00 -0.827781D-02  0.242228D-02 -0.153421D-02
     46 -0.420066D-01 -0.718933D-01 -0.167589D+00 -0.153421D-02 -0.744740D-02
     47  0.211607D-01  0.121691D-01 -0.153421D-02 -0.172383D+00  0.261785D-01
     48  0.249857D+00  0.231555D+00 -0.132702D+00  0.388318D-01 -0.101452D-01
     49  0.136346D+00  0.527020D-01  0.436355D-01  0.152050D-01  0.193909D-02
     50  0.527020D-01  0.143648D+00 -0.481546D-01 -0.138826D-01  0.210823D-02
     51  0.436355D-01 -0.481546D-01 -0.365890D+00 -0.102140D-01 -0.221161D-01
     52  0.152050D-01 -0.138826D-01 -0.102140D-01 -0.397807D+00  0.821715D-01
     53  0.193909D-02  0.210823D-02 -0.221161D-01  0.821715D-01  0.130808D+00
     54  0.504184D-01  0.504156D-01 -0.812971D-05  0.587396D-05 -0.717482D-05
     55  0.636039D+00  0.636038D+00 -0.406031D-05  0.293370D-05 -0.358340D-05
     56  0.110383D-02  0.110382D-02  0.294230D-02 -0.212590D-02  0.000000D+00
     57  0.204921D-02 -0.134828D-02 -0.240883D-02  0.000000D+00 -0.212590D-02
     58  0.974178D-03 -0.148062D-02  0.000000D+00 -0.240884D-02  0.294231D-02
     59  0.670249D+00  0.670248D+00  0.000000D+00  0.000000D+00  0.000000D+00
     60  0.122699D-02  0.122699D-02  0.688004D-03 -0.497103D-03  0.000000D+00
     61 -0.704282D-03 -0.149872D-02 -0.563262D-03  0.000000D+00 -0.497103D-03
     62  0.108287D-02  0.508864D-03  0.000000D+00 -0.563263D-03  0.688004D-03
     63  0.333335D+00  0.333334D+00  0.356748D-05 -0.257761D-05 -0.314849D-05
     64  0.999987D+00  0.333334D+00  0.356747D-05  0.257764D-05  0.314845D-05
     65  0.333334D+00  0.999989D+00 -0.356751D-05 -0.257761D-05  0.314846D-05
     66  0.356747D-05 -0.356751D-05  0.999979D+00  0.545329D-05 -0.446454D-05
     67  0.257764D-05 -0.257761D-05  0.545329D-05  0.999983D+00  0.617907D-05
     68  0.314845D-05  0.314846D-05 -0.446454D-05  0.617907D-05  0.999980D+00
     69  0.634881D-02  0.183382D-01  0.163522D-02 -0.347548D-01 -0.979223D-03
     70  0.117669D+00  0.138435D+00  0.283228D-02 -0.601968D-01 -0.169606D-02
     71  0.293864D-01  0.747941D-01  0.326577D-01  0.103836D+00  0.274513D-01
     72  0.199009D+00  0.231651D+00  0.234766D-01  0.746443D-01  0.197339D-01
     73  0.790123D-01  0.204198D+00  0.401994D-01 -0.227075D+00 -0.396273D-01
     74  0.298585D+00  0.340083D+00  0.133258D-01 -0.752738D-01 -0.131362D-01
     75  0.300387D+00  0.297226D+00  0.798019D-01  0.790638D-01  0.294586D+00
     76  0.401430D+00  0.400726D+00  0.177717D-01  0.176073D-01  0.656037D-01
               31            32            33            34            35 
     31  0.100000D+01
     32  0.658292D+00  0.100000D+01
     33  0.733809D-02  0.103071D+00  0.100000D+01
     34  0.103071D+00  0.319779D+00  0.658292D+00  0.100000D+01
     35  0.137028D-04  0.803657D-02  0.441650D-02  0.839716D-01  0.100000D+01
     36  0.803657D-02  0.660358D-01  0.839716D-01  0.281816D+00  0.658292D+00
     37  0.651978D-02  0.982736D-01  0.782753D-03  0.416278D-01  0.172518D-01
     38  0.982736D-01  0.310519D+00  0.416278D-01  0.182742D+00  0.145260D+00
     39  0.292031D-01  0.893389D-01  0.389827D-01  0.967387D-01  0.275992D-04
     40  0.257773D+00  0.464513D+00  0.299796D+00  0.494399D+00  0.621184D-02
     41 -0.142986D+00 -0.107358D+00 -0.406009D-02 -0.273593D-02  0.126826D-01
     42 -0.753190D-01 -0.565518D-01 -0.180859D+00 -0.121874D+00 -0.109215D-03
     43  0.313922D+00  0.235702D+00 -0.351114D+00 -0.236601D+00 -0.502316D-02
     44  0.366782D+00  0.692861D+00  0.393212D+00  0.722673D+00  0.663482D-01
     45 -0.207655D+00 -0.237518D+00 -0.531735D-02 -0.591593D-02  0.167960D+00
     46 -0.109384D+00 -0.125114D+00 -0.236865D+00 -0.263529D+00 -0.144637D-02
     47  0.455903D+00  0.521464D+00 -0.459840D+00 -0.511605D+00 -0.665234D-01
     48  0.162857D+00  0.355356D+00  0.131592D+00  0.366142D+00  0.114257D-01
     49  0.124148D+00  0.345611D+00  0.206169D+00  0.382479D+00  0.121234D-02
     50  0.367521D+00  0.406880D+00  0.412770D+00  0.427737D+00  0.281385D-02
     51  0.488806D-01  0.123057D-01  0.290123D-02  0.635541D-03 -0.152346D-03
     52 -0.203729D+00 -0.512890D-01  0.563233D-02  0.123382D-02 -0.700692D-02
     53 -0.107316D+00 -0.270169D-01  0.250896D+00  0.549611D-01  0.603391D-04
     54  0.231523D-03  0.203809D-01  0.199826D-02  0.367040D-01  0.121264D-01
     55  0.123190D-01  0.135542D+00  0.457081D-01  0.222019D+00  0.137286D+00
     56 -0.201911D-01 -0.952837D-01 -0.569600D-01 -0.114496D+00  0.140077D+00
     57 -0.820564D-03 -0.387233D-02 -0.151178D-01 -0.303884D-01  0.246899D-01
     58  0.118867D-01  0.560946D-01 -0.483028D-01 -0.970937D-01 -0.135630D+00
     59  0.995753D-01  0.318756D+00  0.182876D+00  0.449067D+00  0.303808D+00
     60 -0.212210D+00 -0.383505D+00 -0.283053D+00 -0.391376D+00  0.358711D+00
     61 -0.862420D-02 -0.155856D-01 -0.751254D-01 -0.103876D+00  0.632264D-01
     62  0.124930D+00  0.225774D+00 -0.240033D+00 -0.331892D+00 -0.347324D+00
     63  0.408895D-01  0.177391D+00  0.958735D-01  0.246998D+00  0.211171D+00
     64  0.652923D-02  0.118764D+00  0.296400D-01  0.199668D+00  0.796394D-01
     65  0.184007D-01  0.139020D+00  0.758605D-01  0.232697D+00  0.202689D+00
     66  0.242263D-02  0.413359D-02  0.327553D-01  0.234067D-01  0.414431D-01
     67 -0.350943D-01 -0.598793D-01  0.104656D+00  0.747866D-01 -0.227661D+00
     68 -0.142623D-02 -0.243349D-02  0.277769D-01  0.198492D-01 -0.401275D-01
     69  0.998993D+00  0.658104D+00  0.678363D-02  0.998584D-01  0.132152D-04
     70  0.658104D+00  0.999825D+00  0.998584D-01  0.313597D+00  0.791909D-02
     71  0.752319D-02  0.104111D+00  0.999920D+00  0.658277D+00  0.431787D-02
     72  0.104111D+00  0.321764D+00  0.658277D+00  0.999986D+00  0.832083D-01
     73  0.136340D-04  0.802014D-02  0.454766D-02  0.849709D-01  0.999819D+00
     74  0.802014D-02  0.659521D-01  0.849709D-01  0.283880D+00  0.658258D+00
     75  0.763626D-02  0.104739D+00  0.804726D-03  0.420987D-01  0.154281D-01
     76  0.104739D+00  0.322958D+00  0.420987D-01  0.184017D+00  0.138915D+00
               36            37            38            39            40 
     36  0.100000D+01
     37  0.145260D+00  0.100000D+01
     38  0.395067D+00  0.658292D+00  0.100000D+01
     39  0.125813D-01  0.132121D-02  0.376153D-01  0.100000D+01
     40  0.994403D-01  0.496850D-01  0.235566D+00  0.219059D+00  0.100000D+01
     41  0.976525D-01  0.729639D-01  0.161272D+00  0.000000D+00  0.000000D+00
     42 -0.840921D-03  0.307812D-01  0.680356D-01  0.000000D+00  0.000000D+00
     43 -0.386768D-01  0.401853D-01  0.888214D-01  0.000000D+00  0.000000D+00
     44  0.245374D+00  0.172309D+00  0.438267D+00  0.184261D+00  0.812273D+00
     45  0.378018D+00  0.296144D+00  0.457182D+00  0.000000D+00  0.000000D+00
     46 -0.325525D-02  0.124934D+00  0.192871D+00  0.000000D+00  0.000000D+00
     47 -0.149720D+00  0.163103D+00  0.251796D+00  0.000000D+00  0.000000D+00
     48  0.113378D+00  0.742663D-01  0.221472D+00  0.791027D-01  0.710235D+00
     49  0.631041D-01  0.254301D-01  0.172759D+00  0.791027D-01  0.710235D+00
     50  0.709874D-01  0.328776D-01  0.180188D+00  0.791027D-01  0.710235D+00
     51 -0.749911D-03  0.434104D-01  0.433011D-01  0.000000D+00  0.000000D+00
     52 -0.344910D-01  0.566729D-01  0.565302D-01  0.000000D+00  0.000000D+00
     53  0.297014D-03  0.239085D-01  0.238483D-01  0.000000D+00  0.000000D+00
     54  0.599144D-01  0.286206D-01  0.755644D-01  0.186356D-04  0.328393D-01
     55  0.334760D+00  0.232366D+00  0.406568D+00  0.227313D-01  0.244395D+00
     56  0.132863D+00  0.641405D-01  0.416683D-01 -0.481512D-01 -0.287807D+00
     57  0.234184D-01  0.213209D+00  0.138509D+00  0.725266D-02  0.433503D-01
     58 -0.128645D+00  0.200274D+00  0.130107D+00 -0.209300D-02 -0.125102D-01
     59  0.597437D+00  0.386528D+00  0.683917D+00  0.811522D-01  0.428239D+00
     60  0.396247D+00  0.117339D+00  0.116483D+00 -0.154974D+00 -0.601104D+00
     61  0.698425D-01  0.390045D+00  0.387200D+00  0.233426D-01  0.905398D-01
     62 -0.383668D+00  0.366383D+00  0.363711D+00 -0.673630D-02 -0.261283D-01
     63  0.342722D+00  0.144873D+00  0.366784D+00  0.118013D+00  0.437628D+00
     64  0.299311D+00  0.307386D+00  0.402979D+00  0.590876D-02  0.163127D+00
     65  0.339922D+00  0.286364D+00  0.398297D+00  0.352312D-02  0.157286D+00
     66  0.136779D-01  0.931055D-01  0.207365D-01 -0.299254D-01 -0.732759D-01
     67 -0.751372D-01  0.874572D-01  0.194785D-01  0.863598D-02  0.211462D-01
     68 -0.132437D-01  0.290716D+00  0.647483D-01 -0.130077D-02 -0.318510D-02
     69  0.791909D-02  0.679232D-02  0.999100D-01  0.280375D-01  0.252320D+00
     70  0.654358D-01  0.999100D-01  0.313697D+00  0.883390D-01  0.460434D+00
     71  0.832083D-01  0.781917D-03  0.416097D-01  0.395284D-01  0.301974D+00
     72  0.280234D+00  0.416097D-01  0.182693D+00  0.971087D-01  0.495880D+00
     73  0.658258D+00  0.167585D-01  0.143586D+00  0.279091D-04  0.624937D-02
     74  0.999969D+00  0.143586D+00  0.392257D+00  0.126213D-01  0.996899D-01
     75  0.138915D+00  0.997284D+00  0.657786D+00  0.147093D-02  0.526224D-01
     76  0.384346D+00  0.657786D+00  0.999528D+00  0.387685D-01  0.241224D+00
               41            42            43            44            45 
     41  0.100000D+01
     42  0.000000D+00  0.100000D+01
     43  0.000000D+00  0.000000D+00  0.100000D+01
     44  0.000000D+00  0.000000D+00  0.000000D+00  0.100000D+01
     45  0.569754D+00  0.000000D+00  0.000000D+00  0.000000D+00  0.100000D+01
     46  0.000000D+00  0.569754D+00  0.000000D+00  0.000000D+00  0.000000D+00
     47  0.000000D+00  0.000000D+00  0.569754D+00  0.000000D+00  0.000000D+00
     48  0.000000D+00  0.000000D+00  0.000000D+00  0.629936D+00  0.000000D+00
     49  0.000000D+00  0.000000D+00  0.000000D+00  0.629936D+00  0.000000D+00
     50  0.000000D+00  0.000000D+00  0.000000D+00  0.629936D+00  0.000000D+00
     51  0.000000D+00  0.000000D+00  0.000000D+00  0.000000D+00  0.000000D+00
     52  0.000000D+00  0.000000D+00  0.000000D+00  0.000000D+00  0.000000D+00
     53  0.000000D+00  0.000000D+00  0.000000D+00  0.000000D+00  0.000000D+00
     54  0.640484D-01 -0.964714D-02  0.278401D-02  0.661813D-01  0.114905D+00
     55  0.344680D+00 -0.519165D-01  0.149823D-01  0.363547D+00  0.524708D+00
     56 -0.333955D+00  0.715724D-01 -0.206546D-01 -0.195547D+00 -0.713061D-01
     57  0.715724D-01  0.130441D+00  0.311105D-02  0.294538D-01  0.437833D-01
     58 -0.206546D-01  0.311105D-02  0.140324D+00 -0.849989D-02 -0.126352D-01
     59  0.309591D+00 -0.466314D-01  0.134571D-01  0.629317D+00  0.624779D+00
     60 -0.148959D+00  0.691018D-01 -0.199417D-01 -0.557317D+00  0.719337D-01
     61  0.691018D-01  0.299407D+00  0.300366D-02  0.839445D-01  0.833391D-01
     62 -0.199417D-01  0.300366D-02  0.308948D+00 -0.242250D-01 -0.240503D-01
     63  0.444590D+00 -0.116004D+00  0.334769D-01  0.410612D+00  0.404820D+00
     64  0.222768D+00  0.154850D-01  0.968312D-02  0.323623D+00  0.476459D+00
     65  0.211119D+00 -0.317993D-01 -0.497506D-02  0.321772D+00  0.473734D+00
     66 -0.103654D+00 -0.259947D+00 -0.635157D-02 -0.232210D-01 -0.813676D-02
     67  0.299129D-01 -0.635157D-02 -0.280123D+00  0.670122D-02  0.234814D-02
     68 -0.635157D-02 -0.112992D-01  0.421929D-01 -0.100935D-02 -0.148604D-02
     69 -0.138421D+00 -0.678315D-01  0.311317D+00  0.363190D+00 -0.203949D+00
     70 -0.105513D+00 -0.517053D-01  0.237305D+00  0.688745D+00 -0.234193D+00
     71 -0.585029D-02 -0.183137D+00 -0.352249D+00  0.394527D+00 -0.762353D-02
     72 -0.392162D-02 -0.122762D+00 -0.236123D+00  0.724135D+00 -0.847044D-02
     73  0.127306D-01 -0.136460D-03 -0.510601D-02  0.665321D-01  0.168033D+00
     74  0.976761D-01 -0.104700D-02 -0.391762D-01  0.245787D+00  0.377769D+00
     75  0.759745D-01  0.317596D-01  0.440969D-01  0.176908D+00  0.298076D+00
     76  0.162030D+00  0.677334D-01  0.940450D-01  0.445331D+00  0.455387D+00
               46            47            48            49            50 
     46  0.100000D+01
     47  0.000000D+00  0.100000D+01
     48  0.000000D+00  0.000000D+00  0.100000D+01
     49  0.000000D+00  0.000000D+00  0.333333D+00  0.100000D+01
     50  0.000000D+00  0.000000D+00  0.333333D+00  0.333333D+00  0.100000D+01
     51  0.000000D+00  0.000000D+00  0.000000D+00  0.000000D+00  0.000000D+00
     52  0.000000D+00  0.000000D+00  0.000000D+00  0.000000D+00  0.000000D+00
     53  0.000000D+00  0.000000D+00  0.000000D+00  0.000000D+00  0.000000D+00
     54 -0.173073D-01  0.499461D-02  0.923914D-01  0.384781D-02  0.196355D-02
     55 -0.790329D-01  0.228076D-01  0.418065D+00  0.106503D+00  0.998731D-01
     56  0.437833D-01 -0.126352D-01 -0.413720D+00 -0.145074D+00 -0.133340D+00
     57  0.212782D+00  0.190314D-02  0.104906D+00 -0.207391D-01  0.200840D-01
     58  0.190314D-02  0.218827D+00 -0.302742D-01 -0.630596D-02  0.649502D-02
     59 -0.941058D-01  0.271574D-01  0.423455D+00  0.301375D+00  0.298777D+00
     60  0.833391D-01 -0.240503D-01 -0.418979D+00 -0.476122D+00 -0.472018D+00
     61  0.612679D+00  0.362252D-02  0.100765D+00  0.340577D-01  0.710965D-01
     62  0.362252D-02  0.624186D+00 -0.290791D-01 -0.206957D-01 -0.965011D-02
     63 -0.910559D-01  0.262772D-01  0.467312D+00  0.250364D+00  0.232291D+00
     64 -0.416847D-01  0.207104D-01  0.250364D+00  0.137220D+00  0.528879D-01
     65 -0.713550D-01  0.119111D-01  0.232291D+00  0.528879D-01  0.144450D+00
     66 -0.167804D+00 -0.148604D-02 -0.131603D+00  0.434873D-01 -0.478904D-01
     67 -0.148604D-02 -0.172525D+00  0.379784D-01  0.148956D-01 -0.136250D-01
     68 -0.729399D-02  0.259862D-01 -0.985431D-02  0.189027D-02  0.205223D-02
     69 -0.999424D-01  0.458692D+00  0.157653D+00  0.118750D+00  0.365422D+00
     70 -0.114763D+00  0.526713D+00  0.351710D+00  0.341724D+00  0.405043D+00
     71 -0.238647D+00 -0.459017D+00  0.132809D+00  0.208726D+00  0.413878D+00
     72 -0.265158D+00 -0.510011D+00  0.367357D+00  0.383875D+00  0.428514D+00
     73 -0.180115D-02 -0.673950D-01  0.114612D-01  0.122160D-02  0.286783D-02
     74 -0.404933D-02 -0.151517D+00  0.113454D+00  0.632793D-01  0.713459D-01
     75  0.124605D+00  0.173008D+00  0.772349D-01  0.266368D-01  0.365777D-01
     76  0.190365D+00  0.264314D+00  0.224936D+00  0.176703D+00  0.186179D+00
               51            52            53            54            55 
     51  0.100000D+01
     52  0.000000D+00  0.100000D+01
     53  0.000000D+00  0.000000D+00  0.100000D+01
     54 -0.236360D-01  0.682097D-02 -0.102739D-02  0.100000D+01
     55 -0.831690D-01  0.240012D-01 -0.361512D-02  0.222216D+00  0.100000D+01
     56  0.110310D+00 -0.318337D-01  0.639813D-02  0.000000D+00  0.000000D+00
     57  0.222709D+00  0.639813D-02  0.968055D-02  0.000000D+00  0.000000D+00
     58  0.639813D-02  0.243034D+00 -0.366063D-01  0.000000D+00  0.000000D+00
     59 -0.325883D-01  0.940446D-02 -0.141652D-02  0.171869D+00  0.775507D+00
     60  0.188722D-01 -0.544621D-02  0.223787D-02  0.000000D+00  0.000000D+00
     61  0.208759D+00  0.223787D-02  0.907420D-02  0.000000D+00  0.000000D+00
     62  0.223787D-02  0.215868D+00 -0.325146D-01  0.000000D+00  0.000000D+00
     63 -0.131603D+00  0.379784D-01 -0.985431D-02  0.504134D-01  0.636041D+00
     64  0.434873D-01  0.148956D-01  0.189027D-02  0.504134D-01  0.636041D+00
     65 -0.478904D-01 -0.136250D-01  0.205223D-02  0.504134D-01  0.636041D+00
     66 -0.367342D+00 -0.990804D-02 -0.217368D-01  0.000000D+00  0.000000D+00
     67 -0.990804D-02 -0.398816D+00  0.817759D-01  0.000000D+00  0.000000D+00
     68 -0.217368D-01  0.817759D-01  0.131786D+00  0.000000D+00  0.000000D+00
     69  0.434541D-01 -0.199436D+00 -0.977309D-01  0.223772D-03  0.120663D-01
     70  0.111543D-01 -0.511935D-01 -0.250867D-01  0.201920D-01  0.134486D+00
     71  0.420481D-02  0.808762D-02  0.253174D+00  0.198758D-02  0.455593D-01
     72  0.914909D-03  0.175975D-02  0.550872D-01  0.366505D-01  0.221747D+00
     73 -0.190130D-03 -0.711424D-02  0.762580D-04  0.120124D-01  0.136495D+00
     74 -0.931644D-03 -0.348600D-01  0.373666D-03  0.597612D-01  0.334043D+00
     75  0.443932D-01  0.616381D-01  0.257666D-01  0.286357D-01  0.232441D+00
     76  0.423181D-01  0.587569D-01  0.245622D-01  0.755752D-01  0.406617D+00
               56            57            58            59            60 
     56  0.100000D+01
     57  0.000000D+00  0.100000D+01
     58  0.000000D+00  0.000000D+00  0.100000D+01
     59  0.000000D+00  0.000000D+00  0.000000D+00  0.100000D+01
     60  0.519296D+00  0.000000D+00  0.000000D+00  0.000000D+00  0.100000D+01
     61  0.000000D+00  0.519296D+00  0.000000D+00  0.000000D+00  0.000000D+00
     62  0.000000D+00  0.000000D+00  0.519296D+00  0.000000D+00  0.000000D+00
     63  0.000000D+00  0.000000D+00  0.000000D+00  0.670250D+00  0.000000D+00
     64  0.000000D+00  0.000000D+00  0.000000D+00  0.670250D+00  0.000000D+00
     65  0.000000D+00  0.000000D+00  0.000000D+00  0.670250D+00  0.000000D+00
     66  0.000000D+00  0.000000D+00  0.000000D+00  0.000000D+00  0.000000D+00
     67  0.000000D+00  0.000000D+00  0.000000D+00  0.000000D+00  0.000000D+00
     68  0.000000D+00  0.000000D+00  0.000000D+00  0.000000D+00  0.000000D+00
     69 -0.197211D-01 -0.576185D-03  0.118339D-01  0.986227D-01 -0.209691D+00
     70 -0.943072D-01 -0.275535D-02  0.565906D-01  0.317031D+00 -0.380556D+00
     71 -0.569919D-01 -0.151639D-01 -0.479034D-01  0.182600D+00 -0.283752D+00
     72 -0.114808D+00 -0.305472D-01 -0.964999D-01  0.448686D+00 -0.392605D+00
     73  0.138451D+00  0.238682D-01 -0.136088D+00  0.303002D+00  0.355829D+00
     74  0.131856D+00  0.227314D-01 -0.129606D+00  0.596547D+00  0.393526D+00
     75  0.564809D-01  0.208579D+00  0.207439D+00  0.386585D+00  0.103305D+00
     76  0.366836D-01  0.135469D+00  0.134729D+00  0.683974D+00  0.102544D+00
               61            62            63            64            65 
     61  0.100000D+01
     62  0.000000D+00  0.100000D+01
     63  0.000000D+00  0.000000D+00  0.100000D+01
     64  0.000000D+00  0.000000D+00  0.333333D+00  0.100000D+01
     65  0.000000D+00  0.000000D+00  0.333333D+00  0.333333D+00  0.100000D+01
     66  0.000000D+00  0.000000D+00  0.000000D+00  0.000000D+00  0.000000D+00
     67  0.000000D+00  0.000000D+00  0.000000D+00  0.000000D+00  0.000000D+00
     68  0.000000D+00  0.000000D+00  0.000000D+00  0.000000D+00  0.000000D+00
     69 -0.612649D-02  0.125828D+00  0.398696D-01  0.636576D-02  0.184115D-01
     70 -0.111186D-01  0.228359D+00  0.175720D+00  0.117777D+00  0.138609D+00
     71 -0.754983D-01 -0.238502D+00  0.961137D-01  0.296062D-01  0.751059D-01
     72 -0.104461D+00 -0.329996D+00  0.247098D+00  0.199467D+00  0.232052D+00
     73  0.613430D-01 -0.349757D+00  0.208414D+00  0.789459D-01  0.203899D+00
     74  0.678418D-01 -0.386810D+00  0.341494D+00  0.298583D+00  0.339997D+00
     75  0.381495D+00  0.379409D+00  0.141279D+00  0.299693D+00  0.297829D+00
     76  0.378688D+00  0.376617D+00  0.366018D+00  0.401291D+00  0.400876D+00
               66            67            68            69            70 
     66  0.100000D+01
     67  0.000000D+00  0.100000D+01
     68  0.000000D+00  0.000000D+00  0.100000D+01
     69  0.169691D-02 -0.348519D-01 -0.101826D-02  0.100000D+01
     70  0.293469D-02 -0.602740D-01 -0.176101D-02  0.658292D+00  0.100000D+01
     71  0.329850D-01  0.104201D+00  0.277249D-01  0.695500D-02  0.100868D+00
     72  0.236232D-01  0.746267D-01  0.198560D-01  0.100868D+00  0.315547D+00
     73  0.398430D-01 -0.227171D+00 -0.391630D-01  0.131419D-04  0.790123D-02
     74  0.132054D-01 -0.752924D-01 -0.129800D-01  0.790123D-02  0.653443D-01
     75  0.801785D-01  0.797401D-01  0.294473D+00  0.795583D-02  0.106482D+00
     76  0.178530D-01  0.177553D-01  0.655690D-01  0.106482D+00  0.326262D+00
               71            72            73            74            75 
     71  0.100000D+01
     72  0.658292D+00  0.100000D+01
     73  0.444599D-02  0.841978D-01  0.100000D+01
     74  0.841978D-01  0.282284D+00  0.658292D+00  0.100000D+01
     75  0.804379D-03  0.420913D-01  0.149873D-01  0.137313D+00  0.100000D+01
     76  0.420913D-01  0.183997D+00  0.137313D+00  0.381610D+00  0.658292D+00
               76 
     76  0.100000D+01
 *** Kinetic Energy *** 
                1             2             3             4             5 
      1  0.162076D+02
      2 -0.124757D+01  0.932246D+00
      3  0.000000D+00  0.000000D+00  0.217833D+01
      4  0.000000D+00  0.000000D+00  0.000000D+00  0.217833D+01
      5  0.000000D+00  0.000000D+00  0.000000D+00  0.000000D+00  0.217833D+01
      6  0.899505D-01  0.306718D+00  0.000000D+00  0.000000D+00  0.000000D+00
      7  0.000000D+00  0.000000D+00  0.376673D+00  0.000000D+00  0.000000D+00
      8  0.000000D+00  0.000000D+00  0.000000D+00  0.376673D+00  0.000000D+00
      9  0.000000D+00  0.000000D+00  0.000000D+00  0.000000D+00  0.376673D+00
     10 -0.524817D+00  0.520042D+00  0.000000D+00  0.000000D+00  0.000000D+00
     11 -0.524817D+00  0.520042D+00  0.000000D+00  0.000000D+00  0.000000D+00
     12 -0.524817D+00  0.520042D+00  0.000000D+00  0.000000D+00  0.000000D+00
     13  0.000000D+00  0.000000D+00  0.000000D+00  0.000000D+00  0.000000D+00
     14  0.000000D+00  0.000000D+00  0.000000D+00  0.000000D+00  0.000000D+00
     15  0.000000D+00  0.000000D+00  0.000000D+00  0.000000D+00  0.000000D+00
     16 -0.485709D-03 -0.289469D-01 -0.681515D-02  0.104187D-02 -0.290814D-03
     17 -0.487118D-01  0.203127D-01  0.191425D+00 -0.292641D-01  0.816844D-02
     18  0.505892D-01 -0.188884D+00 -0.463319D+00  0.807692D-01 -0.225449D-01
     19 -0.773382D-02  0.288757D-01  0.807692D-01  0.526685D-01  0.344656D-02
     20  0.215872D-02 -0.806001D-02 -0.225449D-01  0.344656D-02  0.640541D-01
     21  0.166681D-01  0.987159D-01  0.167788D+00 -0.256505D-01  0.715978D-02
     22 -0.944701D-01 -0.316743D+00 -0.228885D+00  0.605381D-01 -0.168979D-01
     23  0.144421D-01  0.484220D-01  0.605381D-01  0.157857D+00  0.258326D-02
     24 -0.403120D-02 -0.135159D-01 -0.168979D-01  0.258326D-02  0.166391D+00
     25 -0.785361D-02  0.315800D+00  0.683284D+00 -0.162106D+00  0.452483D-01
     26 -0.301391D-01 -0.532104D-01  0.217662D-01  0.543215D-01  0.928800D-03
     27 -0.306309D-01 -0.613529D-01 -0.115146D-02  0.176030D-03 -0.161406D-01
     28 -0.604213D-02 -0.100048D+00 -0.231668D+00 -0.283529D+00 -0.120161D-01
     29  0.168653D-02  0.279261D-01  0.646650D-01 -0.120161D-01 -0.323223D+00
     30 -0.257828D-03 -0.426920D-02 -0.120161D-01 -0.120986D-01  0.494128D-01
     31 -0.345328D-01  0.314581D-01 -0.864546D-01 -0.463098D-01  0.191209D+00
     32  0.226537D-01  0.109483D+00 -0.525464D-01 -0.281468D-01  0.116215D+00
     33 -0.347556D-01  0.617139D-01 -0.175178D-02 -0.127212D+00 -0.246533D+00
     34  0.265684D-01  0.122789D+00 -0.853518D-03 -0.619814D-01 -0.120118D+00
     35 -0.228621D-03 -0.127559D-01 -0.198956D-01  0.188565D-03  0.788202D-02
     36 -0.450700D-02 -0.143722D-01  0.806587D-02 -0.764462D-04 -0.319546D-02
     37 -0.587123D-02 -0.431038D-01 -0.317698D-01 -0.133210D-01 -0.174021D-01
     38 -0.714551D-03  0.159710D-01  0.500879D-01  0.210017D-01  0.274359D-01
     39  0.161701D+02 -0.124659D+01  0.693768D-01 -0.300929D-01 -0.310266D-01
     40 -0.124659D+01  0.932106D+00 -0.299010D-02  0.129698D-02  0.133722D-02
     41 -0.693768D-01  0.299010D-02  0.217787D+01  0.118124D-03  0.121789D-03
     42  0.300929D-01 -0.129698D-02  0.118124D-03  0.217809D+01 -0.528270D-04
     43  0.310266D-01 -0.133722D-02  0.121789D-03 -0.528270D-04  0.217809D+01
     44  0.899484D-01  0.306713D+00  0.121225D-02 -0.525828D-03 -0.542142D-03
     45 -0.931007D-03 -0.244035D-02  0.376659D+00  0.373049D-05  0.384623D-05
     46  0.403834D-03  0.105853D-02  0.373049D-05  0.376666D+00 -0.166834D-05
     47  0.416363D-03  0.109137D-02  0.384623D-05 -0.166834D-05  0.376666D+00
     48 -0.524587D+00  0.520004D+00 -0.191840D-01 -0.173407D-02 -0.178787D-02
     49 -0.524753D+00  0.520012D+00  0.399707D-02  0.832156D-02 -0.178756D-02
     50 -0.524750D+00  0.520012D+00  0.399708D-02 -0.173377D-02  0.857974D-02
     51 -0.153644D-03  0.673870D-05  0.870754D-02 -0.200757D-01  0.000000D+00
     52 -0.158411D-03  0.694777D-05  0.897769D-02  0.000000D+00 -0.200757D-01
     53  0.687122D-04 -0.301367D-05  0.000000D+00  0.897823D-02  0.870804D-02
     54 -0.496582D-03 -0.289130D-01 -0.651575D-02  0.988057D-03 -0.271720D-03
     55 -0.488833D-01  0.210157D-01  0.193084D+00 -0.292795D-01  0.805198D-02
     56  0.504892D-01 -0.190286D+00 -0.465675D+00  0.805880D-01 -0.221620D-01
     57 -0.765625D-02  0.288553D-01  0.805880D-01  0.535436D-01  0.336068D-02
     58  0.210550D-02 -0.793531D-02 -0.221620D-01  0.336068D-02  0.648399D-01
     59  0.168021D-01  0.991649D-01  0.168155D+00 -0.254992D-01  0.701239D-02
     60 -0.947882D-01 -0.317350D+00 -0.228567D+00  0.600861D-01 -0.165239D-01
     61  0.143738D-01  0.481233D-01  0.600861D-01  0.158560D+00  0.250571D-02
     62 -0.395285D-02 -0.132341D-01 -0.165239D-01  0.250571D-02  0.166982D+00
     63 -0.654795D-02  0.317106D+00  0.685544D+00 -0.161530D+00  0.444215D-01
     64 -0.303550D-01 -0.531250D-01  0.219939D-01  0.542385D-01  0.917187D-03
     65 -0.308729D-01 -0.611798D-01 -0.702750D-03  0.106566D-03 -0.158623D-01
     66 -0.640009D-02 -0.995299D-01 -0.230591D+00 -0.286276D+00 -0.116954D-01
     67  0.176005D-02  0.273711D-01  0.634135D-01 -0.116954D-01 -0.325588D+00
     68 -0.266896D-03 -0.415059D-02 -0.116954D-01 -0.119383D-01  0.493726D-01
     69 -0.343365D-01  0.274662D-01 -0.816233D-01 -0.407026D-01  0.184949D+00
     70  0.220918D-01  0.107543D+00 -0.513954D-01 -0.256290D-01  0.116456D+00
     71 -0.347061D-01  0.635244D-01 -0.301995D-02 -0.129795D+00 -0.249221D+00
     72  0.267868D-01  0.123521D+00 -0.145495D-02 -0.625329D-01 -0.120070D+00
     73 -0.230872D-03 -0.128114D-01 -0.199293D-01  0.230844D-03  0.799516D-02
     74 -0.450900D-02 -0.143470D-01  0.813098D-02 -0.941824D-04 -0.326196D-02
     75 -0.637202D-02 -0.438877D-01 -0.305746D-01 -0.127012D-01 -0.176496D-01
     76 -0.371597D-03  0.177624D-01  0.513526D-01  0.213328D-01  0.296441D-01
                6             7             8             9            10 
      6  0.253072D+00
      7  0.000000D+00  0.421786D+00
      8  0.000000D+00  0.000000D+00  0.421786D+00
      9  0.000000D+00  0.000000D+00  0.000000D+00  0.421786D+00
     10  0.226288D+00  0.000000D+00  0.000000D+00  0.000000D+00  0.173333D+01
     11  0.226288D+00  0.000000D+00  0.000000D+00  0.000000D+00 -0.133333D+00
     12  0.226288D+00  0.000000D+00  0.000000D+00  0.000000D+00 -0.133333D+00
     13  0.000000D+00  0.000000D+00  0.000000D+00  0.000000D+00  0.000000D+00
     14  0.000000D+00  0.000000D+00  0.000000D+00  0.000000D+00  0.000000D+00
     15  0.000000D+00  0.000000D+00  0.000000D+00  0.000000D+00  0.000000D+00
     16  0.150795D-01  0.639477D-01 -0.977601D-02  0.272876D-02 -0.203313D-01
     17  0.824555D-01  0.262285D+00 -0.400967D-01  0.111921D-01  0.331445D+00
     18 -0.995274D-01 -0.119872D+00  0.353137D-01 -0.985704D-02 -0.728710D+00
     19  0.152153D-01  0.353137D-01  0.105727D+00  0.150690D-02  0.160596D+00
     20 -0.424700D-02 -0.985704D-02  0.150690D-02  0.110705D+00 -0.448268D-01
     21  0.122659D+00  0.239774D+00 -0.366555D-01  0.102316D-01  0.153981D+00
     22 -0.213884D+00 -0.790263D-01  0.485891D-01 -0.135626D-01 -0.244456D+00
     23  0.326975D-01  0.485891D-01  0.231381D+00  0.207338D-02  0.716275D-01
     24 -0.912680D-02 -0.135626D-01  0.207338D-02  0.238230D+00 -0.199932D-01
     25  0.124447D+00  0.195891D+00 -0.538961D-01  0.150439D-01  0.660314D+00
     26  0.559321D-01  0.215268D+00 -0.895976D-02  0.918584D-02  0.338794D-01
     27  0.544203D-01  0.212239D+00 -0.324460D-01  0.237166D-02 -0.983928D-02
     28 -0.185760D-01 -0.164798D-01 -0.129981D+00 -0.158826D-02 -0.342224D+00
     29  0.518507D-02  0.459998D-02 -0.158826D-02 -0.135228D+00  0.955242D-01
     30 -0.792667D-03 -0.158826D-02 -0.554650D-02  0.206729D-01 -0.229223D-01
     31  0.897727D-01 -0.106804D+00 -0.572098D-01  0.236214D+00 -0.158888D-01
     32  0.129981D+00 -0.830344D-01 -0.444778D-01  0.183645D+00  0.752550D-01
     33  0.102554D+00 -0.174758D-02 -0.126907D+00 -0.245942D+00 -0.859026D-01
     34  0.139712D+00 -0.130399D-02 -0.946939D-01 -0.183514D+00  0.752871D-01
     35 -0.146652D-01  0.767590D-02 -0.727502D-04 -0.304096D-02 -0.233921D-01
     36  0.360237D-02  0.676631D-01 -0.641294D-03 -0.268061D-01 -0.572775D-03
     37  0.626607D-02  0.911463D-01  0.382173D-01  0.499258D-01 -0.425601D-01
     38  0.485863D-01  0.126313D+00  0.529626D-01  0.691887D-01  0.323398D-01
     39  0.899484D-01  0.931007D-03 -0.403834D-03 -0.416363D-03 -0.524587D+00
     40  0.306713D+00  0.244035D-02 -0.105853D-02 -0.109137D-02  0.520004D+00
     41 -0.121225D-02  0.376659D+00  0.373049D-05  0.384623D-05  0.191840D-01
     42  0.525828D-03  0.373049D-05  0.376666D+00 -0.166834D-05  0.173407D-02
     43  0.542142D-03  0.384623D-05 -0.166834D-05  0.376666D+00  0.178787D-02
     44  0.253069D+00  0.135745D-02 -0.588808D-03 -0.607076D-03  0.226286D+00
     45 -0.135745D-02  0.421776D+00  0.265300D-05  0.273531D-05 -0.758484D-03
     46  0.588808D-03  0.265300D-05  0.421781D+00 -0.118647D-05  0.926498D-03
     47  0.607076D-03  0.273531D-05 -0.118647D-05  0.421781D+00  0.955244D-03
     48  0.226286D+00  0.758484D-03 -0.926498D-03 -0.955244D-03  0.173308D+01
     49  0.226284D+00  0.213596D-02 -0.328995D-03 -0.955238D-03 -0.133299D+00
     50  0.226284D+00  0.213596D-02 -0.926493D-03 -0.339202D-03 -0.133299D+00
     51 -0.166534D-05  0.517437D-03 -0.119293D-02  0.000000D+00  0.639538D-04
[...]
     68   0.123304D+02 -0.199401D+02  0.176169D+03  0.515360D+02  0.867566D+01
     69  -0.243553D+00  0.190604D+01 -0.274698D+01  0.289056D-01 -0.243224D+00
     70  -0.708365D+00 -0.683557D+01  0.342208D+01 -0.277142D+02  0.910044D+01
     71  -0.251986D+02 -0.158913D+02  0.678297D+01  0.707232D+01 -0.868288D+01
     72   0.264835D+01  0.146849D+02 -0.414644D+01  0.341427D+02  0.307728D+01
     73   0.117670D+01  0.677277D+01 -0.348799D+01  0.173467D+02 -0.394383D+01
     74  -0.255723D+01 -0.620041D+02  0.314665D+02 -0.189678D+03  0.480090D+02
     75   0.258463D-03 -0.601480D+00  0.165603D+01 -0.118406D+01  0.468689D+00
     76   0.118535D+01  0.110832D+02  0.294626D+00  0.263166D+02 -0.624148D+01
                56            57            58            59            60 
      1   0.331910D+01 -0.710106D+00 -0.432041D+01 -0.788332D+00 -0.669219D+01
      2   0.171714D+02 -0.677711D+01 -0.224121D+02 -0.496574D+01 -0.474075D+02
      3   0.422154D+02  0.248156D+01 -0.156964D+03  0.532433D+02  0.406291D+02
      4   0.105869D+02  0.704569D+02 -0.891020D+02  0.231309D+03  0.622847D+02
      5  -0.958721D+01 -0.663078D+02 -0.192109D+03 -0.123758D+03  0.172723D+02
      6  -0.152217D+00  0.496450D+00 -0.513484D-01 -0.215953D+00 -0.740134D-01
      7   0.350748D+01 -0.116332D+01  0.570255D+01  0.501864D+01 -0.421056D+01
      8   0.645673D+01 -0.141701D+02 -0.500968D+01  0.217396D+02  0.253061D+02
      9  -0.543090D+01  0.780436D+01 -0.110557D+02 -0.984110D+01 -0.405956D+01
     10   0.116191D+02 -0.865837D+01  0.211212D+02 -0.147607D+01 -0.843247D+01
     11   0.531149D+02 -0.199461D+01  0.921912D+00 -0.265845D+01 -0.153930D+02
     12  -0.410571D+02 -0.141127D+02 -0.919771D+01  0.233337D+01 -0.491342D+01
     13   0.383912D+02  0.353755D+02 -0.665992D+01 -0.780771D+01 -0.166085D+02
     14   0.871837D+01 -0.452054D+02 -0.536188D+00  0.125445D+02  0.188801D+02
     15   0.163547D+02 -0.712684D+01 -0.268295D+01  0.770375D+00  0.109764D+02
     16   0.390262D+01  0.976595D+01  0.798609D+01 -0.333673D+01 -0.409538D+01
     17   0.460941D+01  0.259001D+02  0.305931D+02 -0.778081D+01 -0.849749D+01
     18   0.158421D+02  0.434570D+02 -0.249674D+02 -0.624664D+02  0.157710D+03
     19  -0.301276D+02 -0.466233D+02  0.126195D+02  0.853384D+02 -0.138810D+03
     20   0.607450D+01  0.356207D+02  0.136767D+02 -0.680100D+02  0.887823D+02
     21   0.401278D-01  0.141210D+00 -0.145098D+00 -0.991858D-01  0.221545D+00
     22   0.335904D+01 -0.274386D+01 -0.964304D+01 -0.561935D+01 -0.176550D+02
     23   0.691170D+01  0.135282D+02 -0.591016D+01 -0.366987D+01 -0.431148D+01
     24  -0.938503D+01 -0.698074D+00 -0.127603D+02 -0.338020D+01  0.251991D+01
     25   0.139199D+02 -0.383559D+02 -0.487825D+02 -0.113093D+02 -0.108419D+03
     26  -0.151352D+03  0.100590D+03 -0.291407D+01  0.216038D+01  0.454083D+02
     27   0.119030D+03 -0.101896D+02  0.114253D+03  0.127816D+02  0.802442D+02
     28   0.117367D+03  0.128519D+03 -0.463058D+02 -0.319807D+02 -0.794510D+02
     29   0.378735D+02 -0.141141D+03 -0.187278D+02  0.601224D+02  0.833802D+02
     30  -0.475561D+02 -0.608494D+02  0.359577D+02  0.271084D+02  0.606075D+02
     31  -0.126131D+01 -0.139020D+01 -0.246279D+00 -0.596944D+00  0.964273D+00
     32   0.680977D+00 -0.160124D+01 -0.206241D+01  0.464872D+01  0.399838D+01
     33  -0.112123D+02 -0.616533D+00  0.768395D+01  0.295199D+01  0.251763D+01
     34  -0.143621D+02  0.174201D+02 -0.122866D+02 -0.230751D+02 -0.151262D+02
     35  -0.132157D+01 -0.270805D+01 -0.265832D+01  0.932222D+00 -0.704646D+00
     36   0.288642D+02 -0.175175D+02  0.206737D+02 -0.488766D+01  0.388644D+01
     37  -0.402357D+00 -0.117515D+01  0.139475D+00  0.269842D+00  0.358811D+00
     38  -0.433604D+01 -0.509428D+01 -0.200514D+01 -0.102630D+00 -0.136167D+01
     39  -0.359111D+01  0.695277D+00  0.449235D+01  0.741165D+00  0.663135D+01
     40  -0.175987D+02  0.665768D+01  0.224589D+02  0.471653D+01  0.466846D+02
     41  -0.420298D+02 -0.240346D+01  0.156268D+03 -0.533126D+02 -0.409130D+02
     42  -0.109655D+02 -0.711666D+02  0.892705D+02 -0.231156D+03 -0.618429D+02
     43   0.931392D+01  0.670295D+02  0.192122D+03  0.123552D+03 -0.174959D+02
     44  -0.152215D+00  0.496705D+00 -0.510897D-01 -0.215809D+00 -0.741354D-01
     45  -0.347768D+01  0.124211D+01 -0.543271D+01 -0.492556D+01  0.418522D+01
     46  -0.635986D+01  0.139317D+02  0.503481D+01 -0.216754D+02 -0.252127D+02
     47   0.534654D+01 -0.775592D+01  0.111817D+02  0.978570D+01  0.411027D+01
     48  -0.112169D+02  0.880664D+01 -0.231944D+02  0.217838D+01  0.919000D+01
     49  -0.532834D+02  0.181255D+01 -0.417244D+00  0.154796D+01  0.152674D+02
     50   0.412892D+02  0.144386D+02  0.103469D+02 -0.157708D+01  0.505259D+01
     51  -0.388462D+02 -0.354331D+02  0.666799D+01  0.931437D+01  0.171597D+02
     52  -0.897200D+01  0.452434D+02 -0.175048D+00 -0.136970D+02 -0.191069D+02
     53  -0.163725D+02  0.708079D+01  0.355784D+01 -0.109432D+01 -0.112085D+02
     54  -0.374757D+01 -0.947109D+01 -0.803777D+01  0.274159D+01  0.517212D+01
     55  -0.441395D+01 -0.258290D+02 -0.303951D+02  0.712783D+01  0.963123D+01
     56  -0.160962D+02 -0.443336D+02  0.244296D+02  0.626695D+02 -0.157560D+03
     57   0.311648D+02  0.466594D+02 -0.124862D+02 -0.854530D+02  0.138414D+03
     58  -0.536763D+01 -0.360976D+02 -0.136369D+02  0.682147D+02 -0.884030D+02
     59   0.401474D-01  0.141167D+00 -0.144878D+00 -0.990349D-01  0.221743D+00
     60  -0.329942D+01  0.384726D+01  0.950772D+01  0.547074D+01  0.175012D+02
     61  -0.725533D+01 -0.128258D+02  0.586568D+01  0.373425D+01  0.448990D+01
     62   0.878955D+01  0.440797D+00  0.123588D+02  0.334383D+01 -0.249423D+01
     63  -0.140679D+02  0.377946D+02  0.491915D+02  0.116956D+02  0.107997D+03
     64   0.151354D+03 -0.100744D+03  0.286250D+01 -0.177887D+01 -0.462133D+02
     65  -0.119186D+03  0.100805D+02 -0.114393D+03 -0.125538D+02 -0.806039D+02
     66  -0.117563D+03 -0.128626D+03  0.461936D+02  0.316954D+02  0.804175D+02
     67  -0.380015D+02  0.141359D+03  0.188466D+02 -0.599938D+02 -0.841517D+02
     68   0.475215D+02  0.609787D+02 -0.359982D+02 -0.274774D+02 -0.599524D+02
     69   0.143223D+01  0.131135D+01  0.260181D+00  0.627108D+00 -0.852820D+00
     70  -0.550991D+00  0.141037D+01  0.211159D+01 -0.437779D+01 -0.397790D+01
     71   0.111316D+02  0.529780D+00 -0.783459D+01 -0.293550D+01 -0.252324D+01
     72   0.144158D+02 -0.175670D+02  0.125187D+02  0.231548D+02  0.151659D+02
     73   0.117764D+01  0.254501D+01  0.261823D+01 -0.951560D+00  0.576037D+00
     74  -0.288679D+02  0.171125D+02 -0.206515D+02  0.500693D+01 -0.379970D+01
     75   0.730513D+00  0.922861D+00 -0.428378D-01 -0.192478D+00 -0.400464D+00
     76   0.437406D+01  0.490124D+01  0.203418D+01  0.127886D+00  0.120477D+01
                61            62            63            64            65 
      1  -0.334237D+01 -0.696201D+01  0.270629D+01  0.444271D+00 -0.224888D+01
      2  -0.350284D+02 -0.461749D+02  0.184462D+02 -0.211254D+01 -0.117746D+02
      3   0.465906D+02  0.365832D+02 -0.395715D+01  0.486322D+02 -0.255735D+02
      4  -0.724051D+02  0.431005D+02 -0.111992D+02  0.154840D+02 -0.749639D+01
      5   0.680600D+02  0.118409D+03  0.421187D+01  0.281820D+02  0.219188D+02
      6   0.459192D+00  0.449281D-01 -0.138767D+01 -0.686494D+00 -0.242231D+01
      7   0.414161D+01  0.952083D+01  0.543351D+02  0.852615D+01  0.857433D+02
      8  -0.539004D+01 -0.117185D+02 -0.238998D+02  0.100596D+02 -0.150553D+01
      9   0.174369D+02 -0.510886D+01 -0.775579D+02 -0.639242D+01 -0.125603D+03
     10  -0.323313D+02 -0.387795D+01 -0.306392D+01 -0.425918D+02  0.274736D+02
     11  -0.732053D+01 -0.462744D+00 -0.230244D+01 -0.709086D+01 -0.424379D+01
     12  -0.287266D+02 -0.151669D+02 -0.126965D+02 -0.438001D+01  0.512516D+01
     13   0.282395D+02 -0.208054D+02  0.108132D+02 -0.165253D+02 -0.554303D+01
     14   0.126638D+01 -0.481463D+02  0.107554D+02 -0.584196D+01 -0.234054D+02
     15   0.868110D+00 -0.151548D+02  0.826502D+01 -0.230218D+01 -0.724735D+00
     16   0.104847D+02  0.394196D+01  0.756869D+00  0.406857D+01  0.155795D+01
     17   0.591924D+02  0.219382D+02  0.390143D+01  0.502154D+02  0.410023D+00
     18  -0.260454D+02 -0.788719D+01  0.116322D+02 -0.279423D+03  0.219980D+02
     19   0.856586D+02  0.112097D+03  0.170061D+03 -0.178195D+03 -0.117594D+03
     20  -0.121738D+03  0.258849D+02  0.249889D+03  0.112929D+03 -0.178167D+03
     21  -0.820465D-01 -0.959863D-01  0.756141D+00  0.804079D+00  0.975629D+00
     22  -0.122860D+02 -0.684097D+01 -0.225810D+01 -0.132055D+02 -0.791361D+01
     23   0.110329D+02 -0.120306D+02 -0.492592D+02  0.281811D+02 -0.668619D+02
     24   0.435019D+01 -0.236720D+02 -0.552615D+02 -0.267484D+02 -0.750108D+02
     25  -0.818262D+02 -0.357118D+02  0.245674D+01  0.743805D+02 -0.586475D+01
     26   0.153310D+03 -0.454105D+02  0.370692D+02  0.759303D+02 -0.129003D+02
     27   0.110131D+03  0.146224D+03 -0.358258D+02  0.787097D+02 -0.299295D+02
     28   0.104082D+03 -0.115113D+03  0.701626D+02 -0.192902D+02 -0.575051D+01
     29   0.857561D+02 -0.184830D+03  0.752344D+02  0.906901D+01 -0.521898D+02
     30   0.547327D+02 -0.772187D+01  0.106206D+01  0.124292D+02 -0.168778D+02
     31   0.192635D+00 -0.110090D+00  0.844080D+00  0.379668D+00  0.140305D+01
     32   0.149143D+01 -0.182382D+01 -0.269161D+01  0.477291D+01  0.298641D+01
     33   0.403114D+00  0.110886D+02  0.133043D+02  0.296236D+01  0.285688D+02
     34  -0.104132D+02 -0.160414D+02 -0.152137D+03 -0.357272D+02 -0.279362D+03
     35   0.521316D+00 -0.434181D+01  0.362248D+01 -0.102196D+01  0.464028D+01
     36   0.767132D+01  0.109307D+02 -0.501645D+02  0.790838D+01 -0.670497D+02
     37   0.101408D+01 -0.144641D+01  0.145944D-01  0.696030D+00 -0.767418D+00
     38  -0.620777D+01 -0.257710D+01  0.231690D+01 -0.380027D+01  0.474127D+01
     39   0.300495D+01  0.720332D+01 -0.267259D+01 -0.605627D+00  0.252303D+01
     40   0.335646D+02  0.464839D+02 -0.183809D+02  0.149033D+01  0.125724D+02
     41  -0.462851D+02 -0.369140D+02  0.402391D+01 -0.480611D+02  0.249739D+02
     42   0.718693D+02 -0.426997D+02  0.108194D+02 -0.152624D+02  0.737903D+01
     43  -0.681603D+02 -0.117521D+03 -0.457051D+01 -0.281366D+02 -0.215163D+02
     44   0.458713D+00  0.451559D-01 -0.138882D+01 -0.687368D+00 -0.242345D+01
     45  -0.421889D+01 -0.946677D+01 -0.544836D+02 -0.903242D+01 -0.855202D+02
     46   0.539001D+01  0.116165D+02  0.246566D+02 -0.985127D+01  0.294934D+01
     47  -0.169061D+02  0.497442D+01  0.776424D+02  0.631735D+01  0.125547D+03
     48   0.334494D+02  0.453822D+01  0.307886D+01  0.439027D+02 -0.278493D+02
     49   0.801380D+01  0.263837D+00  0.242716D+01  0.706465D+01  0.434220D+01
     50   0.286982D+02  0.146560D+02  0.127617D+02  0.430464D+01 -0.517826D+01
     51  -0.293965D+02  0.212289D+02 -0.111691D+02  0.165536D+02  0.564349D+01
     52  -0.987057D+00  0.494735D+02 -0.110250D+02  0.581990D+01  0.238472D+02
     53  -0.806373D+00  0.147115D+02 -0.821772D+01  0.218092D+01  0.701635D+00
     54  -0.111811D+02 -0.427853D+01 -0.732916D+00 -0.409813D+01 -0.155595D+01
     55  -0.603166D+02 -0.224376D+02 -0.396887D+01 -0.507450D+02 -0.371612D+00
     56   0.257825D+02  0.779733D+01 -0.116903D+02  0.280082D+03 -0.222976D+02
     57  -0.854874D+02 -0.112308D+03 -0.169938D+03  0.177940D+03  0.117547D+03
     58   0.122026D+03 -0.262502D+02 -0.249709D+03 -0.112819D+03  0.177886D+03
     59  -0.817005D-01 -0.958628D-01  0.756363D+00  0.805022D+00  0.975894D+00
     60   0.126917D+02  0.698721D+01  0.210363D+01  0.123026D+02  0.766098D+01
     61  -0.104665D+02  0.120204D+02  0.493871D+02 -0.276935D+02  0.666932D+02
     62  -0.484652D+01  0.231859D+02  0.551862D+02  0.264095D+02  0.745821D+02
     63   0.816431D+02  0.356461D+02 -0.262427D+01 -0.735845D+02  0.572155D+01
     64  -0.152825D+03  0.459028D+02 -0.362910D+02 -0.770688D+02  0.120401D+02
     65  -0.109777D+03 -0.146250D+03  0.348522D+02 -0.792895D+02  0.306696D+02
     66  -0.104776D+03  0.115119D+03 -0.706826D+02  0.190759D+02  0.623122D+01
     67  -0.855266D+02  0.185379D+03 -0.760317D+02 -0.881739D+01  0.529384D+02
     68  -0.553344D+02  0.743986D+01 -0.654668D+00 -0.116831D+02  0.165372D+02
     69  -0.166233D+00  0.907829D-01 -0.716430D+00 -0.328325D+00 -0.127152D+01
     70  -0.193838D+01  0.182838D+01  0.334961D+01 -0.460383D+01 -0.159116D+01
     71  -0.518235D+00 -0.113208D+02 -0.132075D+02 -0.300796D+01 -0.284724D+02
     72   0.105351D+02  0.160007D+02  0.153074D+03  0.358375D+02  0.280946D+03
     73  -0.699790D+00  0.437440D+01 -0.374511D+01  0.964923D+00 -0.475227D+01
     74  -0.771759D+01 -0.110650D+02  0.502854D+02 -0.780854D+01  0.671674D+02
     75  -0.933529D+00  0.148186D+01 -0.107692D+00 -0.772445D+00  0.689723D+00
     76   0.599192D+01  0.274052D+01 -0.243150D+01  0.378338D+01 -0.471749D+01
                66            67            68            69            70 
      1   0.276124D+02 -0.478117D+01 -0.253424D+02 -0.203119D+02  0.671071D+00
      2   0.244625D+03 -0.613985D+02 -0.300687D+03 -0.263273D+03  0.171779D+02
      3  -0.874969D+01  0.110206D+02 -0.160476D+01  0.729075D+01 -0.272141D+02
      4   0.171611D+02  0.394650D+02 -0.714138D+01  0.126898D+02 -0.129878D+02
      5  -0.229349D+02 -0.134336D+02 -0.107502D+02 -0.276725D+02 -0.113962D+02
      6  -0.175115D+00 -0.792817D+00 -0.107297D+01  0.928082D+00  0.169587D+00
      7   0.965386D+01  0.106332D+03  0.142064D+03 -0.181835D+03 -0.797015D+02
      8   0.300808D+02 -0.459880D+03  0.994512D+02  0.202791D+02  0.153024D+02
      9   0.556669D+01 -0.191241D+02 -0.136764D+03  0.226665D+03  0.148333D+03
     10  -0.935195D+02 -0.216213D+02  0.646888D+02  0.383412D+02  0.528106D+02
     11  -0.899088D+02  0.215490D+01  0.868552D+02  0.788225D+02  0.293399D+01
     12  -0.786806D+02  0.128829D+02  0.940691D+02  0.990010D+02 -0.357149D+01
     13  -0.510225D+02 -0.393472D+02 -0.831859D+00 -0.213887D+02  0.117604D+02
     14   0.935392D+01  0.705500D+01  0.167835D+02  0.346610D+02  0.100802D+02
     15  -0.101554D+02 -0.255730D+02 -0.130009D+01 -0.195080D+02 -0.506374D+01
     16   0.143618D+02 -0.413678D+01 -0.386678D+01  0.235862D+02 -0.643978D+02
     17   0.144848D+03 -0.106594D+02  0.235995D+00  0.231604D+03 -0.564426D+03
     18   0.152070D+03  0.330197D+02  0.788544D+02  0.708677D+02  0.249776D+02
     19   0.153936D+02 -0.372365D+02  0.321147D+02  0.947820D+01  0.178895D+02
     20  -0.300145D+02 -0.224236D+02 -0.751191D+01  0.195890D+02 -0.647734D+01
     21   0.169201D-01  0.122597D+01  0.123319D+01 -0.139281D+01 -0.627746D+00
     22  -0.121372D+02  0.741167D+02 -0.607204D+02  0.886355D+02  0.231220D+02
     23   0.670568D+02 -0.912663D+02  0.272739D+03 -0.162414D+03 -0.623658D+01
     24  -0.417348D+02 -0.543490D+02 -0.163939D+03  0.188269D+03  0.569688D+02
     25   0.242388D+03  0.887746D+02  0.208122D+03  0.216879D+03  0.207783D+03
     26   0.759075D+02  0.163526D+02  0.462908D+02  0.961450D+01  0.171365D+03
     27   0.944069D+02  0.411893D+02  0.123680D+02  0.267512D+01  0.193755D+03
     28  -0.557173D+02 -0.420074D+01  0.136752D+02  0.115702D+02  0.404300D+02
     29   0.214097D+00  0.463949D+02  0.199982D+02  0.570060D+01 -0.448689D+02
     30   0.528710D+00  0.180562D+02 -0.769115D+01 -0.107753D+02  0.233811D+02
     31   0.680134D+00 -0.796165D-01 -0.829026D+00  0.874568D+00  0.286611D+00
     32   0.877131D+01 -0.305774D+02  0.114789D+02  0.767977D+01  0.104873D+02
     33   0.368556D+01 -0.274901D+00 -0.263986D+01  0.207019D+01  0.128587D+01
     34  -0.184748D+02  0.869440D+02  0.912085D+02 -0.176638D+03 -0.130117D+03
     35  -0.894774D+00  0.266760D+01 -0.396688D-01  0.320404D+01 -0.961490D+00
     36   0.258431D+01  0.280804D+02 -0.123517D+02 -0.202666D+01  0.325275D+01
     37   0.503197D+00  0.158712D+01  0.747048D-01  0.851049D+00  0.540664D+00
     38  -0.603099D+01  0.110670D+02 -0.117215D+01 -0.560616D+01 -0.339557D+01
     39  -0.274096D+02  0.467767D+01  0.253866D+02  0.204615D+02 -0.502396D+00
     40  -0.243411D+03  0.611118D+02  0.301584D+03  0.264639D+03 -0.162998D+02
     41   0.109517D+02 -0.105937D+02  0.175525D+01 -0.657797D+01  0.265948D+02
     42  -0.170102D+02 -0.390339D+02  0.765079D+01 -0.121790D+02  0.127379D+02
     43   0.221898D+02  0.131100D+02  0.109865D+02  0.277230D+02  0.112680D+02
     44  -0.175229D+00 -0.799783D+00 -0.107504D+01  0.932496D+00  0.172404D+00
     45  -0.981245D+01 -0.108585D+03 -0.142958D+03  0.183372D+03  0.808220D+02
     46  -0.299938D+02  0.460625D+03 -0.992606D+02 -0.205719D+02 -0.150884D+02
     47  -0.555234D+01  0.213271D+02  0.136081D+03 -0.226736D+03 -0.148718D+03
     48   0.942190D+02  0.218169D+02 -0.641655D+02 -0.373456D+02 -0.538575D+02
     49   0.895030D+02 -0.262614D+01 -0.872015D+02 -0.790608D+02 -0.287551D+01
     50   0.786070D+02 -0.131374D+02 -0.943435D+02 -0.989511D+02  0.365060D+01
     51   0.515605D+02  0.396361D+02  0.865866D+00  0.215243D+02 -0.117494D+02
     52  -0.969676D+01 -0.741032D+01 -0.172518D+02 -0.350750D+02 -0.993540D+01
     53   0.102861D+02  0.255726D+02  0.140281D+01  0.195753D+02  0.518396D+01
     54  -0.142098D+02  0.423406D+01  0.372403D+01 -0.233136D+02  0.644911D+02
     55  -0.144766D+03  0.106616D+02 -0.814127D+00 -0.231006D+03  0.565128D+03
     56  -0.150876D+03 -0.322755D+02 -0.777981D+02 -0.698444D+02 -0.245212D+02
     57  -0.156712D+02  0.372395D+02 -0.322326D+02 -0.923113D+01 -0.188853D+02
     58   0.300453D+02  0.227098D+02  0.767275D+01 -0.197034D+02  0.719720D+01
     59   0.174660D-01  0.122609D+01  0.123361D+01 -0.139276D+01 -0.627606D+00
     60   0.119907D+02 -0.755512D+02  0.605030D+02 -0.883432D+02 -0.233801D+02
     61  -0.665168D+02  0.895679D+02 -0.272159D+03  0.162829D+03  0.658802D+01
     62   0.412310D+02  0.533892D+02  0.163591D+03 -0.187911D+03 -0.568103D+02
     63  -0.243980D+03 -0.891500D+02 -0.209859D+03 -0.217965D+03 -0.207634D+03
     64  -0.760516D+02 -0.167816D+02 -0.463757D+02 -0.930922D+01 -0.171166D+03
     65  -0.944346D+02 -0.411348D+02 -0.127053D+02 -0.249436D+01 -0.193720D+03
     66   0.567635D+02  0.491546D+01 -0.133605D+02 -0.108508D+02 -0.405317D+02
     67  -0.737664D+00 -0.465242D+02 -0.204165D+02 -0.650779D+01  0.448590D+02
     68  -0.625114D+00 -0.180347D+02  0.749676D+01  0.110100D+02 -0.234804D+02
     69  -0.528149D+00 -0.385577D+00  0.785064D+00 -0.849541D+00 -0.208233D+00
     70  -0.867128D+01  0.291023D+02 -0.102698D+02 -0.828957D+01 -0.105264D+02
     71  -0.391541D+01  0.356363D+00  0.273659D+01 -0.211495D+01 -0.143458D+01
     72   0.185463D+02 -0.858496D+02 -0.916231D+02  0.176740D+03  0.130243D+03
     73   0.867871D+00 -0.255696D+01 -0.169954D+00 -0.297138D+01  0.105438D+01
     74  -0.260867D+01 -0.281307D+02  0.122270D+02  0.211678D+01 -0.311243D+01
     75  -0.513505D+00 -0.130520D+01 -0.337749D+00 -0.666415D+00 -0.476794D+00
     76   0.612754D+01 -0.107528D+02  0.110933D+01  0.562232D+01  0.339026D+01
 NBasis=    76 RedAO= T EigKep=  1.02D-06  NBF=    76
 NBsUse=    70 1.00D-06 EigRej=  6.80D-07 NBFU=    70
 ExpMin= 1.61D-01 ExpMax= 4.17D+03 ExpMxC= 6.27D+02 IAcc=1 IRadAn=         1 AccDes= 0.00D+00
 Harris functional with IExCor=  205 and IRadAn=       1 diagonalized for initial guess.
 HarFok:  IExCor=  205 AccDes= 0.00D+00 IRadAn=         1 IDoV= 1 UseB2=F ITyADJ=14
 ICtDFT=  3500011 ScaDFX=  1.000000  1.000000  1.000000  1.000000
 Spurious integrated density or basis function:
 NE=   34 NElCor=    0 El error=7.18D-02 rel=2.11D-03 Tolerance=1.00D-03
 Shell     5     absolute error=9.23D-03              Tolerance=1.20D-02
 Shell    12       signed error=3.81D-05              Tolerance=1.00D-01
 Inaccurate quadrature in CalDSu.
 Error termination via Lnk1e in /opt/g09_D01_em64t/g09/l401.exe at Wed Apr 30 17:12:01 2014.
 Job cpu time:       0 days  0 hours  0 minutes  0.8 seconds.
 File lengths (MBytes):  RWF=      5 Int=      0 D2E=      0 Chk=      1 Scr=      1
