Sender: LSF System <lsfadmin@t4301>
Subject: Job 625168: <freq> Done

Job <freq> was submitted from host <lb270207> by user <lanb> in cluster <shenteng7000>.
Job was executed on host(s) <8*t4301>, in queue <x64_3950>, as user <lanb> in cluster <shenteng7000>.
</home_soft/home/lanb> was used as the home directory.
</lustre/lana/lan/test_normal/freq> was used as the working directory.
Started at Thu Aug 16 20:21:30 2012
Results reported at Thu Aug 16 20:43:55 2012

Your job looked like:

------------------------------------------------------------
# LSBATCH: User input
turbomole.lsf aoforce
------------------------------------------------------------

Successfully completed.

Resource usage summary:

    CPU time   :   1344.22 sec.
    Max Memory :        57 MB
    Max Swap   :       369 MB

    Max Processes  :         4
    Max Threads    :         5

The output (if any) follows:

 operating system is UNIX !
 hostname is         T4301

 force(T4301) : TURBOMOLE V5-10 15 Jan 2008 at 16:44:58
 Copyright (C) 2008 University of Karlsruhe


    2012-08-16 20:21:31.568 



                             T U R B O M O L E   

                          a o f o r c e - program

                        using direct algorithms for

                       SCF level calculations of
                         * harmonic force constants
                         * hyperpolarizabilities
                         * IR and RAMAN intensities

                       DFT level calculations of
                         * harmonic force constants
                         * IR intensities
                                                   
       Stephan Boecker, Peter Deglmann, Filipp Furche and Marco Haeser
                          Quantum Chemistry Group
                          Universitaet  Karlsruhe
                                   Germany





     References :

       RI-J implementation:
         Peter Deglmann, Klaus May, Filipp Furche, Reinhart Ahlrichs
                 Chem. Phys. Lett. 384:103 (2004)

       Efficiency, technical details:
         Peter Deglmann, Filipp Furche, Reinhart Ahlrichs
                 Chem. Phys. Lett. 362:511 (2002)

       Search of lowest eigenvalues by iterative diagonalization:
         Peter Deglmann, Filipp Furche
                 J. Chem. Phys. 117:9535 (2002)




              +--------------------------------------------------+
              | Atomic coordinate, charge and isotop information |
              +--------------------------------------------------+


              atomic coordinates              atom shells charge pseudo isotop
    -0.41945720    2.79257027    0.02413927    c      6    6.000    0     0
     1.61445101    0.96787416    0.01077179    c      6    6.000    0     0
     1.00897208   -1.60888592   -0.00433526    c      6    6.000    0     0
    -1.29799507   -2.71493858    0.00548088    n      6    7.000    0     0
    -3.16313476   -1.08490476    0.00555901    c      6    6.000    0     0
    -2.80263405    1.48316053    0.02125368    n      6    7.000    0     0
     4.19403895    1.31045302    0.01387803    n      6    7.000    0     0
     5.13729345   -0.96946715    0.00362686    c      6    6.000    0     0
     3.29253300   -2.82603517   -0.00774184    n      6    7.000    0     0
    -5.60691878   -1.93588481   -0.09100836    n      6    7.000    0     0
    -0.39952636    5.08423065    0.03027121    o      6    8.000    0     0
     7.14323686   -1.44388008    0.00432507    h      3    1.000    0     0
     3.54155439   -4.72464547   -0.00214451    h      3    1.000    0     0
    -4.31296516    2.66880087   -0.04667915    h      3    1.000    0     0
    -7.01272192   -0.83113746    0.59236097    h      3    1.000    0     0
    -5.80846787   -3.81945235    0.19328704    h      3    1.000    0     0


     center of nuclear mass  :    0.04090949    0.05756613    0.00591976

     center of nuclear charge:   -0.00158537    0.00415302    0.01044777


              +--------------------------------------------------+
              |               basis set information              |
              +--------------------------------------------------+


              we will work with the  1s 3p 5d  7f  9g ... basis set
              ...i.e. with spherical basis functions...


   type   atoms  prim   cont   basis
   ---------------------------------------------------------------------------
    c        5     24     14   def2-SVP   [3s2p1d|7s4p1d]
    n        5     24     14   def2-SVP   [3s2p1d|7s4p1d]
    o        1     24     14   def2-SVP   [3s2p1d|7s4p1d]
    h        5      7      5   def2-SVP   [2s1p|4s1p]
   ---------------------------------------------------------------------------
   total:   16    299    179
   ---------------------------------------------------------------------------

   total number of primitive shells          :   41
   total number of contracted shells         :   81
   total number of cartesian basis functions :  190
   total number of SCF-basis functions       :  179


 symmetry group of the molecule :   c1 

 the group has the following generators :
   c1(z)

    1 symmetry operations found

 there are 1 real representations :   a   

 maximum number of shells which are related by symmetry :  1


 determining totally symmetric integral contributions 
    - equivalent to irreducible tensor elements - 
 which can be formed within each triple of representations :

             representation triple      contributions

              a     a     a               1

    mo occupation :
   irrep   mo's   occupied
    a      179       39

 number of basis functions   :           179
 number of occupied orbitals :            39

  MOs are in ASCII format !


 reading orbital data $scfmo  from file mos . 

 orbital characterization : scfconv=6


         --------------------------------------------------------------
                   checking mo's by calculating trace(D*S)

              number of electrons : 
                 from trace(D*S)         :   77.999999992202
                 from occupation numbers :   78.000000000000

              molecular charge           :    0.000000000000
         --------------------------------------------------------------

 time elapsed for calculating density matrices :   0.007 sec

 number of non-frozen orbitals          :   179
 number of non-frozen occupied orbitals :    39
 Blocking parameters 
 shells:
    index      start shell   last shell  start bf    last bf    #bf 
       1             1          81             1        190    190
  
           ------------------
           density functional
           ------------------
 Becke-3-Parameter hybrid functional: B3-LYP
 exchange:    0.8*LDA + 0.72*B88 + 0.2*HF
 correlation: 0.19*LDA(VWN) + 0.81*LYP
 iterations will be done with small grid
  
 spherical integration : Lebedev's spherical grid
 spherical gridsize    :            3
    i.e. gridpoints    :          302
 value for diffuse not defined
 radial integration    : Chebyshev 2nd kind (scaling 3)
 radial gridsize       :            3
 integration cells     :           16
 partition function    : becke
 partition sharpness   :            3
  

 Derivatives of quadrature weights will be included

          Overall gridpoints after grid construction =         85086
 Ordering of quadrature gridpoints disabled.




 OCCUPIED-OCCUPIED TENSOR SPACES :

          IRREP   tensor space dimension   number of roots

           a              1521                  42

 OCCUPIED-VIRTUAL TENSOR SPACES :

          IRREP   tensor space dimension   number of roots

           a              5460                  42




 CONSTRUCTING integral bounds

 setting up bound for integral derivative estimation

 increment for numerical differentiation : 0.00050000

 machine precision:    2.2204460492503131E-016

 integral neglect threshold       :  0.10E-09
 integral storage threshold THIZE :  0.10E-04
 integral storage threshold THIME :         5


   disc space (kbyte) allocation for  1 2e-integral file(s) :
   --------------------------------------------------------
   twoint                                            250880
   --------------------------------------------------------

 maximum number of buffers which may be written onto 2e-file(s) =     15680




 PREPARING NUMERICAL INTEGRATION

 Remaining core memory for DFT =          161 MB

 Memory needed per atom    =          425 KiB

     i. e.           16 atoms per loop

 Calculating ground state density on molecular grid

 Integral of ground state density: N =   78.00000947227635    




 CONSTRUCTING first deriv. of <mu|x,y,z|nu> -> Dip. deriv.
  dipole integral derivatives will be neglected if
  expon. factor <0.263158E-10
      ...terminated. cpu:       0.02       wall:       0.02




 CONSTRUCTING first deriv. of  <mu|nu>
                               <mu|h|nu>    -> RHS
              second deriv. of <mu|nu>      -> Hessian
                               <mu|h|nu>    -> Hessian
                               nucl. rep.   -> Hessian
     integrals are neglected if expon. factor <   9.9999999999999982E-013
      ...terminated. cpu:       0.61       wall:       0.61




 CONSTRUCTING second deriv. of 2e energy    -> Hessian
   treating Coulomb (and exchange) contribution
     integrals will be neglected if total contribution < 
   2.6315789473684208E-008
      ...terminated. cpu:      97.58       wall:      97.58
   treating exchange-correlation contribution
      ...terminated. cpu:     113.76       wall:     113.76




 CONSTRUCTING S(i,j)xi
      ...terminated. cpu:       0.02       wall:       0.02




 CONSTRUCTING <i|x,y,z|j>*S(i,j)xi          -> Dip. deriv.
      ...terminated. cpu:       0.02       wall:       0.02




 CONSTRUCTING epsilon(i)*S(i,j)xi*S(i,j)chi -> Hessian
      ...terminated. cpu:       0.00       wall:       0.00




 CONSTRUCTING G(a,i)[S(k,l)xi]              -> RHS
              G(i,j)[S(k,l)xi]*S(i,j)chi    -> Hessian

         Maximum core memory set to           200 MB
         This corresponds to          712 vectors in CAO basis
      ...terminated. cpu:     171.94       wall:     171.94




 CONSTRUCTING G(mu,nu)[D(kap,lam)]xi

          Maximum core memory set to           200 MB
          Atoms treated simultaneously :           16
      ...terminated. cpu:     228.74       wall:     228.74




 CONSTRUCTING F(a,i)xi                      -> RHS
              F(i,j)xi*S(i,j)chi            -> Hessian

        Maximum core memory set to          200 MB
        This corresponds to         1110 vectors in CAO basis
      ...terminated. cpu:       0.35       wall:       0.35




 CONSTRUCTING epsilon(i)*S(a,i)xi           -> RHS
      ...terminated. cpu:       0.11       wall:       0.11




 SOLVING CPHF equations

 Residuum convergence criterium   :   1.0000000000000000E-005

 Maximum number of Davidson iterations set to           25
  Switching to small grid
        preparing numerical integration ....
          Overall gridpoints after grid construction =         23637

 Calculating ground state density on molecular grid

 Integral of ground state density: N =   78.00120950858570    




                       Block Davidson iteration


 total number of roots to be determined:  42


 maximum core memory set to   200 MB,
 corresponding to      712 vectors in CAO basis


 maximum number of simultaneously treated vectors (including degeneracy):  42


 Iteration IRREP Converged      Max. Euclidean
                 roots          residual norm


  31450348 2 e - integrals written in     15357 blocks requiring  245712 k-byte

    1       a        0        8.668180945285291D-02

    2       a        0        8.263644099677824D-03

    3       a        0        7.398659347407051D-04

    4       a        5        4.761772869674147D-05

    5       a       42        9.324234179748219D-06


 converged!

  Switching to fine grid
        preparing numerical integration ....
          Overall gridpoints after grid construction =         85086

 Calculating ground state density on molecular grid

 Integral of ground state density: N =   78.00000947227599    



 Iteration IRREP Converged      Max. Euclidean
                 roots          residual norm

    6       a        3        3.682700281096335D-05


 NOTE: Residual norms are larger than 1.00D-05 due to mgrid option!

      ...terminated. cpu:     723.13       wall:     723.13




 CONSTRUCTING <a|x,y,z|i>*U(a,i)xi          -> Dip. deriv.
      ...terminated. cpu:       0.02       wall:       0.02




 CONSTRUCTING RHS(a,i)xi*U(a,i)chi          -> Hessian
      ...terminated. cpu:       0.01       wall:       0.01





            -----------------------
            permanent dipole moment
            -----------------------

                                   x                y                z
    electronic part       :   -1.3110416212    -2.5135353222    -0.5466515866
     nuclear   part       :   -0.1236587482     0.3239352442     0.8149258641
     total                :   -1.4347003694    -2.1896000780     0.2682742775

 with reference to the point :   0.0000000        0.0000000        0.0000000
 (given in atomic units)
    | dipole |       :    6.6886044645  debye

   ***  dipole moment & cartesian dipole gradients written onto
        $dipole, $dipgrad,  file=<control>  ***

             -----------------------------------
             rotational and vibrational analysis
             -----------------------------------


            ==============================================================
            ATOMIC WEIGHTS (average over the natural occurance of isotops)
            ==============================================================
            ('*' denotes special isotop !)
              1     c                12.01115
              2     c                12.01115
              3     c                12.01115
              4     n                14.00670
              5     c                12.01115
              6     n                14.00670
              7     n                14.00670
              8     c                12.01115
              9     n                14.00670
             10     n                14.00670
             11     o                15.99940
             12     h                 1.00797
             13     h                 1.00797
             14     h                 1.00797
             15     h                 1.00797
             16     h                 1.00797

          -------------------------------------------------
          CARTESIAN FORCE CONSTANT MATRIX (hartree/bohr**2)
         (translational & rotational space projected out)
          -------------------------------------------------

   ATOM              1 c                           2 c 
                  dx        dy        dz        dx        dy        dz
   1 c     dx  0.4933203
           dy -0.0995611 1.0280068
           dz  0.0002534 0.0029450 0.1986422
   2 c     dx -0.1854458 0.0715242 0.0007584 0.7197923
           dy  0.0722675-0.1701783-0.0006493-0.0753192 0.7190583
           dz  0.0007690-0.0009305-0.0673607-0.0007641 0.0033321 0.1388194
   3 c     dx  0.0452746 0.0246247 0.0001208-0.1185912-0.0273913-0.0000408
           dy  0.0347556-0.0388547-0.0001167-0.0476492-0.2974991-0.0014818
           dz -0.0005767-0.0001094-0.0055716 0.0001917-0.0014985-0.0801255
   4 n     dx -0.0482978 0.0108823-0.0001409 0.0049427-0.0468943-0.0000597
           dy  0.0194754 0.0060959-0.0000614-0.0371967-0.0036175 0.0000887
           dz  0.0011279-0.0004479-0.0020805-0.0005903 0.0006163 0.0114404
   5 c     dx  0.0370790-0.0327851 0.0002165-0.0091290 0.0170068 0.0000466
           dy -0.0875786-0.0118412 0.0002964 0.0194717-0.0276962-0.0001076
           dz  0.0014638-0.0004946-0.0074391-0.0004056 0.0002548 0.0015751
   6 n     dx -0.1791327-0.0040512 0.0002160-0.0555390-0.0028193-0.0000512
           dy  0.0412307-0.1208713 0.0006629-0.0027478 0.0346134 0.0000543
           dz -0.0026195-0.0008231-0.0534433-0.0000432-0.0001781 0.0059281
   7 n     dx -0.0416125 0.0067739 0.0000348-0.2641519-0.0629113-0.0003845
           dy  0.0278836 0.0084452 0.0000740-0.0291111-0.0973427-0.0002733
           dz  0.0003398 0.0002082-0.0089002-0.0002910-0.0002398-0.0685330
   8 c     dx -0.0047012-0.0096974-0.0000613-0.0852499 0.0290592 0.0001450
           dy -0.0224790 0.0087243 0.0000077 0.0844916-0.0310517-0.0000816
           dz -0.0000983 0.0000187 0.0057939 0.0004174-0.0001379 0.0115437
   9 n     dx  0.0124786-0.0072890-0.0001186-0.0147312 0.0632702 0.0000743
           dy -0.0050396-0.0082381-0.0000571 0.0022847-0.0614157-0.0003682
           dz -0.0000740-0.0000407 0.0056567-0.0001417-0.0004847 0.0111855
  10 n     dx -0.0060006 0.0085470 0.0000573 0.0033057-0.0038113 0.0001165
           dy  0.0154498 0.0012871-0.0008612-0.0019738 0.0024983-0.0001411
           dz -0.0019143 0.0022684 0.0026264 0.0013360-0.0011377-0.0008524
  11 o     dx -0.1033436 0.0071904 0.0001398 0.0132108 0.0368966 0.0000984
           dy  0.0142452-0.7226918-0.0019553 0.0167682-0.0608671-0.0002921
           dz -0.0002105-0.0018800-0.0757681 0.0001333-0.0004514 0.0202633
  12 h     dx -0.0000253-0.0001318-0.0000055 0.0023793 0.0015025-0.0000014
           dy  0.0003208 0.0011726-0.0000053 0.0022098-0.0038441-0.0000639
           dz -0.0000137-0.0000176 0.0015221-0.0000107-0.0000564 0.0084762
  13 h     dx  0.0024771 0.0010980 0.0000157-0.0076788 0.0034160 0.0000284
           dy -0.0000072-0.0008807-0.0000043-0.0000141-0.0002946 0.0000182
           dz -0.0000127-0.0000255 0.0016269 0.0000921-0.0000193 0.0040712
  14 h     dx -0.0226351 0.0250818-0.0008546-0.0034955-0.0049440-0.0000251
           dy -0.0112748 0.0197583-0.0006171-0.0028678-0.0023764 0.0000542
           dz  0.0004503 0.0004093 0.0031518 0.0002004 0.0000609 0.0034446
  15 h     dx -0.0016635-0.0012966-0.0006412 0.0001908 0.0001861-0.0000274
           dy -0.0007811 0.0003835 0.0003111 0.0005778-0.0002692 0.0002255
           dz  0.0013773-0.0006015-0.0005631-0.0007703 0.0005455-0.0001158
  16 h     dx  0.0022283-0.0009101 0.0000096 0.0001907 0.0004857 0.0000760
           dy  0.0010928-0.0003175 0.0000305-0.0004483 0.0002823-0.0000331
           dz -0.0002618-0.0004787 0.0021066-0.0001123 0.0000436 0.0002399

   ATOM              3 c                           4 n 
                  dx        dy        dz        dx        dy        dz
   3 c     dx  0.8469652
           dy  0.0636657 0.6875607
           dz -0.0000881 0.0018557 0.1697204
   4 n     dx -0.2901106-0.1144900-0.0002646 0.7300280
           dy -0.0924559-0.1677349-0.0001488-0.0764031 0.4484362
           dz -0.0008520 0.0003252-0.0550108 0.0009024 0.0000293 0.0834226
   5 c     dx -0.0989991 0.0118968 0.0001122-0.2919209 0.1405633 0.0019784
           dy  0.0262747 0.0335755-0.0003886 0.1576283-0.2527942-0.0002743
           dz  0.0000780-0.0003421-0.0008603 0.0010424-0.0016461-0.0770122
   6 n     dx -0.0042062-0.0021689 0.0001886 0.0128236 0.0307763-0.0000415
           dy -0.0339075-0.0253669 0.0005781 0.0570393-0.0595674-0.0002248
           dz -0.0004494-0.0003449-0.0035538 0.0007331 0.0002724 0.0210259
   7 n     dx -0.0358580-0.0611403-0.0004996-0.0096436 0.0000434 0.0003966
           dy -0.0144116-0.0178925 0.0000089-0.0010151-0.0065042-0.0002519
           dz -0.0003596-0.0001664 0.0145670 0.0002215-0.0001068 0.0050123
   8 c     dx -0.0890933 0.0155174-0.0000253-0.0014444 0.0029819 0.0001061
           dy -0.0365538 0.0202073-0.0002391-0.0040205-0.0024097 0.0004795
           dz -0.0002440-0.0000572 0.0128479-0.0000069 0.0000627 0.0022110
   9 n     dx -0.2563582 0.0740402 0.0003674-0.0465560 0.0140199-0.0000244
           dy  0.0872175-0.1922163-0.0000204-0.0046490 0.0257907-0.0003854
           dz -0.0000505-0.0000361-0.0633903 0.0004232 0.0001060-0.0006960
  10 n     dx  0.0064917 0.0049339 0.0010727-0.0744023 0.0110165-0.0028415
           dy -0.0004059-0.0057838 0.0009824 0.0369966 0.0198528 0.0010905
           dz  0.0030740 0.0011316 0.0063840-0.0037461 0.0036340 0.0088996
  11 o     dx -0.0126083-0.0043435 0.0002011 0.0100973-0.0048365-0.0003278
           dy  0.0071187 0.0138374 0.0000151-0.0105742-0.0038752 0.0001912
           dz  0.0000923 0.0000596 0.0062019-0.0000785 0.0000382-0.0013369
  12 h     dx  0.0015947-0.0039408-0.0000137-0.0009121 0.0004609-0.0000108
           dy -0.0005319-0.0055716-0.0000330-0.0014165 0.0011922-0.0000158
           dz  0.0000113-0.0000438 0.0018440-0.0000414 0.0000368 0.0015042
  13 h     dx  0.0097322 0.0295288-0.0000589 0.0023766-0.0029771-0.0000061
           dy -0.0013404-0.0053374-0.0000361-0.0016723 0.0006807 0.0000385
           dz  0.0001576-0.0001088-0.0037880-0.0001043 0.0000016-0.0026614
  14 h     dx -0.0013414-0.0011546 0.0000218 0.0029150-0.0043657-0.0002996
           dy -0.0013596 0.0002614 0.0000014-0.0031438-0.0053695-0.0000524
           dz  0.0002674 0.0001024-0.0007245-0.0004161-0.0001865 0.0066484
  15 h     dx -0.0012066 0.0003540-0.0005233-0.0037239-0.0027560 0.0012659
           dy -0.0000742 0.0011076-0.0002361-0.0029119 0.0003289-0.0009426
           dz -0.0016137-0.0005564 0.0027081 0.0001840-0.0012421 0.0005212
  16 h     dx -0.0016855 0.0001949-0.0001053 0.0038285 0.0016534-0.0007833
           dy -0.0004692-0.0002928-0.0007316 0.0046444-0.0005048-0.0001753
           dz -0.0001032-0.0002203-0.0012486 0.0013518-0.0008780-0.0018877

   ATOM              5 c                           6 n 
                  dx        dy        dz        dx        dy        dz
   5 c     dx  0.8658345
           dy -0.0281258 0.7261141
           dz -0.0036116 0.0061402 0.1901677
   6 n     dx -0.1644400 0.0097256-0.0036565 0.7049465
           dy -0.0497877-0.2875944-0.0018528-0.1080283 0.7613565
           dz -0.0006257 0.0014721-0.0566256 0.0176273-0.0072475 0.0687254
   7 n     dx  0.0086578-0.0139864 0.0005754 0.0066689 0.0128640-0.0002089
           dy  0.0006279 0.0009023-0.0003326 0.0026267-0.0040771 0.0001385
           dz -0.0000417 0.0001556-0.0006510-0.0000962-0.0003147 0.0052387
   8 c     dx  0.0004534-0.0003023 0.0004321 0.0008343-0.0012112-0.0001961
           dy  0.0075932-0.0135105 0.0006979 0.0084310 0.0085046-0.0003067
           dz  0.0001073-0.0001169 0.0012456 0.0000440 0.0000570-0.0003221
   9 n     dx -0.0006764 0.0013978-0.0004089-0.0081326-0.0000838 0.0004598
           dy -0.0092650 0.0031875-0.0000578 0.0001993-0.0017498-0.0000629
           dz -0.0002053 0.0001101 0.0036858-0.0000158-0.0000651-0.0004419
  10 n     dx -0.3277856-0.0811996-0.0133441-0.0058384-0.0210411-0.0014194
           dy -0.0780309-0.1582200-0.0133746-0.0619219-0.0352385-0.0028676
           dz  0.0202985-0.0026408-0.0459016 0.0006826-0.0032410 0.0091265
  11 o     dx -0.0116232 0.0157704-0.0003820-0.0005200-0.0752788-0.0000369
           dy  0.0009314 0.0002860-0.0000264-0.0486362-0.0639608 0.0006722
           dz  0.0000115-0.0002114 0.0052444-0.0000612 0.0000375 0.0184153
  12 h     dx  0.0001233-0.0002043-0.0000048-0.0001994 0.0002720 0.0000085
           dy -0.0001769-0.0006279-0.0000019 0.0006304-0.0000271 0.0000087
           dz  0.0000387-0.0000346 0.0002919 0.0000127 0.0000334-0.0006516
  13 h     dx -0.0009775 0.0007737-0.0000325-0.0001659-0.0010760 0.0000087
           dy  0.0010121-0.0006098 0.0000525-0.0002713 0.0003806 0.0000173
           dz  0.0000188-0.0000266-0.0004762-0.0000005 0.0000241 0.0001043
  14 h     dx  0.0107995-0.0023197 0.0009500-0.3030072 0.1801995-0.0118467
           dy  0.0303355-0.0128663 0.0013449 0.1775467-0.2072526 0.0087422
           dz  0.0009502-0.0012925-0.0052896-0.0139179 0.0100942-0.0156728
  15 h     dx -0.0187600 0.0224742 0.0114345 0.0031445 0.0023620-0.0013569
           dy -0.0063762 0.0117946 0.0067921-0.0005473-0.0005836 0.0001044
           dz -0.0118688 0.0018860-0.0054737-0.0006598 0.0007514-0.0011541
  16 h     dx  0.0013642-0.0397995 0.0058698-0.0072364-0.0008054-0.0000347
           dy -0.0054193-0.0100994 0.0028464-0.0014916 0.0014342 0.0004029
           dz -0.0074257-0.0049673-0.0024812-0.0002705 0.0006530 0.0033009

   ATOM              7 n                           8 c 
                  dx        dy        dz        dx        dy        dz
   7 n     dx  0.4945337
           dy -0.0633876 0.6136901
           dz -0.0000002 0.0024232 0.1042260
   8 c     dx -0.1479296 0.1110609 0.0003693 0.8550058
           dy  0.1426113-0.3971637-0.0014151-0.1387387 0.6749764
           dz  0.0004795-0.0013686-0.0768954 0.0002746 0.0021872 0.1370913
   9 n     dx -0.0013467-0.0343149 0.0000280-0.2089026-0.0792834-0.0008603
           dy  0.0147478-0.1010998-0.0006905-0.0817348-0.1852207-0.0005329
           dz  0.0001986-0.0006751 0.0254058-0.0006252-0.0003147-0.0570814
  10 n     dx -0.0056561 0.0021434-0.0001470-0.0038700-0.0058472-0.0001270
           dy  0.0002245 0.0011786 0.0001528-0.0012226-0.0006164-0.0000189
           dz -0.0016618 0.0008560-0.0002847-0.0010828-0.0019844-0.0002299
  11 o     dx  0.0053083-0.0035013-0.0000514 0.0017482 0.0032888 0.0000108
           dy -0.0038463 0.0046150-0.0000101 0.0032219-0.0053387-0.0000263
           dz -0.0000289 0.0000301-0.0003195 0.0000280-0.0000337-0.0005710
  12 h     dx -0.0052717 0.0071461 0.0000450-0.3337389 0.0578686-0.0001806
           dy  0.0300963-0.0050260 0.0000411 0.0627980-0.0693169-0.0000989
           dz  0.0001601-0.0000189-0.0050575-0.0001223-0.0000474-0.0269036
  13 h     dx -0.0037966-0.0072476-0.0000869 0.0173095-0.0172537 0.0001380
           dy -0.0015631-0.0004847 0.0000059 0.0084241-0.0077086 0.0000348
           dz -0.0000895-0.0000505 0.0058999 0.0000544-0.0001849-0.0081703
  14 h     dx -0.0002194 0.0013484-0.0000012-0.0003989-0.0001508 0.0000017
           dy -0.0006166 0.0008349 0.0000369-0.0002339-0.0002037-0.0000118
           dz  0.0000379-0.0000657 0.0005167 0.0000527 0.0000440-0.0005255
  15 h     dx  0.0000920-0.0002123 0.0001000 0.0001788 0.0001881 0.0000315
           dy -0.0004209 0.0001727-0.0001872-0.0003427-0.0004576-0.0000081
           dz  0.0007611-0.0003547-0.0000828 0.0004226 0.0009392-0.0000721
  16 h     dx  0.0002254 0.0003645-0.0000285-0.0002013-0.0001455 0.0000125
           dy  0.0005113-0.0002482 0.0001069 0.0004201 0.0005855 0.0000171
           dz  0.0002296-0.0001394-0.0001423 0.0002282 0.0002521 0.0000379

   ATOM              9 n                          10 n 
                  dx        dy        dz        dx        dy        dz
   9 n     dx  0.6176090
           dy -0.0627609 0.9602790
           dz  0.0007088 0.0002297 0.0851327
  10 n     dx  0.0028485 0.0012294 0.0002024 0.7435025
           dy  0.0016623 0.0012534 0.0001113-0.0331070 0.8182338
           dz  0.0010847 0.0007363 0.0009324-0.1447918 0.0324013 0.0959769
  11 o     dx -0.0021452 0.0034369 0.0000190 0.0021150-0.0037759 0.0006281
           dy  0.0032584 0.0004320-0.0000081-0.0036454-0.0037687-0.0011079
           dz  0.0000343 0.0000053-0.0018545-0.0000498 0.0000901-0.0000055
  12 h     dx -0.0149459 0.0051866 0.0000123-0.0000560 0.0000734 0.0000070
           dy -0.0265556 0.0089423 0.0000081-0.0000238 0.0002004 0.0000233
           dz -0.0001906 0.0000307-0.0007539-0.0000317-0.0000665-0.0002095
  13 h     dx -0.0797049 0.0494746-0.0002541 0.0003379-0.0001354 0.0000733
           dy  0.0525760-0.4500348 0.0011026-0.0007403-0.0001169-0.0002242
           dz -0.0003585 0.0015397-0.0075824-0.0000058 0.0000121-0.0000377
  14 h     dx  0.0003379 0.0000630-0.0000010-0.0008420-0.0017431-0.0007654
           dy  0.0000622 0.0003715 0.0000091-0.0000471 0.0019784-0.0006379
           dz -0.0001145 0.0000278-0.0001272-0.0003478 0.0007959-0.0019628
  15 h     dx -0.0000818-0.0004628-0.0001346-0.2653834 0.1593413 0.1106523
           dy  0.0002166-0.0000439-0.0000617 0.1609834-0.2016710-0.0838816
           dz -0.0005880-0.0003212 0.0001445 0.1372729-0.0982871-0.0564566
  16 h     dx  0.0003075 0.0000723-0.0000619-0.0687671-0.0314313 0.0161258
           dy -0.0002161-0.0002372 0.0000093-0.0393909-0.4410676 0.0538046
           dz -0.0000935-0.0000733-0.0002159 0.0243840 0.0799807-0.0180050

   ATOM             11 o                          12 h 
                  dx        dy        dz        dx        dy        dz
  11 o     dx  0.0928564
           dy  0.0213628 0.8439304
           dz -0.0001533 0.0022394 0.0353173
  12 h     dx -0.0000949 0.0000164-0.0000014 0.3515848
           dy  0.0000720-0.0001353 0.0000021-0.0681457 0.0725506
           dz  0.0000031 0.0000055-0.0000050 0.0001497 0.0001465 0.0210103
  13 h     dx -0.0007582 0.0003851-0.0000014-0.0004624 0.0005933-0.0000008
           dy  0.0001221 0.0005387 0.0000238-0.0000910 0.0004112-0.0000114
           dz  0.0000051-0.0000016-0.0005731 0.0000011 0.0000038-0.0010060
  14 h     dx  0.0061268-0.0010526 0.0002330 0.0000030 0.0001438 0.0000027
           dy  0.0034873-0.0027537 0.0001080-0.0000126 0.0000959-0.0000035
           dz  0.0001922-0.0003122-0.0046180-0.0000002-0.0000053-0.0000657
  15 h     dx  0.0002994 0.0007055 0.0000481-0.0000047-0.0000393 0.0000129
           dy  0.0003061-0.0003180-0.0000475-0.0000053-0.0000172 0.0000502
           dz -0.0003792 0.0004103-0.0000518-0.0000081-0.0000066-0.0000923
  16 h     dx -0.0006687-0.0002588 0.0000044 0.0000264 0.0000252 0.0000200
           dy -0.0001976 0.0000700-0.0000102 0.0000051 0.0000008-0.0000028
           dz  0.0000330 0.0002060-0.0003388 0.0000031-0.0000027 0.0000964

   ATOM             13 h                          14 h 
                  dx        dy        dz        dx        dy        dz
  13 h     dx  0.0614641
           dy -0.0565406 0.4634577
           dz  0.0002322-0.0011459 0.0123305
  14 h     dx -0.0000314 0.0000576-0.0000026 0.3119427
           dy -0.0000879-0.0000690 0.0000013-0.1902849 0.2084901
           dz -0.0000014-0.0000065 0.0001205 0.0117577-0.0097659 0.0146119
  15 h     dx -0.0000078 0.0000497 0.0000105 0.0000773-0.0014352 0.0008771
           dy  0.0000314-0.0000497-0.0000148-0.0010904-0.0009942 0.0001575
           dz -0.0000440 0.0000830 0.0000961 0.0007098 0.0008958 0.0014786
  16 h     dx -0.0001141-0.0000013 0.0000023-0.0002312-0.0000675 0.0000120
           dy  0.0000176 0.0001172-0.0000047 0.0002117 0.0000950-0.0000573
           dz -0.0000101 0.0000518 0.0000455 0.0001196-0.0001051-0.0009864

   ATOM             15 h                          16 h 
                  dx        dy        dz        dx        dy        dz
  15 h     dx  0.2801366
           dy -0.1739242 0.1995199
           dz -0.1182449 0.0911967 0.0604541
  16 h     dx  0.0067124 0.0243591-0.0065510 0.0640209
           dy -0.0055344-0.0089027 0.0046617 0.0462643 0.4590852
           dz -0.0035045-0.0134579-0.0013403-0.0145677-0.0608643 0.0208191


   *** projected hessian written onto $hessian (projected), file=<control> ***

 dipole moment in principle axis system (a.u.) :
    -1.3929631988    -2.2179629436     0.2549090949
 norm :    2.631479572284590     

 rotational constants b for rotations around axis of inertia
 and optical intensities for (1 <-- 0) transition

   b   :     0.0637406694     0.0370584182     0.0234433059   (cm**(-1))
   b   :        1910.8972        1110.9834         702.8126     (MHz)
  int. :     1.9403464733     4.9193596194     0.0649786467     (a.u.)

   x   :     0.9998183413    -0.0190425328    -0.0008162782
   y   :     0.0190377485     0.9998035551    -0.0055150148
   z   :     0.0009211377     0.0054984729     0.9999844590

   ***  normal modes written onto $vibrational normal modes, file=<control>  ***

   ***  vibrational spectroscopic data written onto$vibrational spectrum   
        file=<control>  ***

          ---------------------------------------------------
          NORMAL MODES and VIBRATIONAL FREQUENCIES (cm**(-1))
          ---------------------------------------------------

 imaginary wave numbers indicate a negative curvature of the energy surface.
 zero frequency modes have no physical meaning except being generators of
 translations and rotations. each vibrational normal mode - given in terms of
 cartesian displacement vectors of all atoms - has been normalized to unity.
 to obtain mass-weigthed normal coordinates in a.u. divide the tabulated
 modes by sqrt(reduced mass * 1822.88853).
 band intensities or cross sections refer to independent non-degenerate normal
 modes, that is, the intensities of degenerate modes have yet to be added.
 dDIP/dQ is the normal mode derivative of the dipole moment.


       mode               1        2        3        4        5        6

     frequency           0.00     0.00     0.00     0.00     0.00     0.00

     symmetry                                                             

        IR                -        -        -        -        -        - 
|dDIP/dQ|   (a.u.)     0.0000   0.0000   0.0000   0.0000   0.0000   0.0000
intensity (km/mol)       0.00     0.00     0.00     0.00     0.00     0.00
intensity (  %   )       0.00     0.00     0.00     0.00     0.00     0.00

       RAMAN              -        -        -        -        -        - 

  1   c           x   0.06656  0.01098 -0.01287  0.23069  0.14533 -0.07531
                  y   0.06368  0.00051  0.22410  0.02769 -0.03830 -0.02252
                  z  -0.00154  0.03837 -0.07490  0.06382 -0.23078 -0.23898
  2   c           x   0.06425  0.01140 -0.02954  0.22956  0.07255 -0.00363
                  y   0.06220  0.00098  0.20497  0.02618 -0.12010  0.05663
                  z  -0.15005  0.03835  0.00035  0.09808 -0.13871 -0.13731
  3   c           x   0.06116  0.01183 -0.05313  0.22792 -0.03026  0.09756
                  y   0.06330  0.00179  0.21021  0.02652 -0.09654  0.03222
                  z  -0.21267 -0.11788  0.05270  0.10559 -0.03673 -0.02902
  4   n           x   0.06052  0.01128 -0.06351  0.22703 -0.07452  0.14082
                  y   0.06516  0.00153  0.23178  0.02820 -0.00398 -0.05780
                  z  -0.15296 -0.27690  0.04345  0.08475 -0.00945 -0.00330
  5   c           x   0.06207  0.01143 -0.04844  0.22818 -0.00941  0.07691
                  y   0.06694  0.00171  0.24903  0.02951  0.07052 -0.13092
                  z  -0.01826 -0.27905 -0.02452  0.05358 -0.09208 -0.09461
  6   n           x   0.06519  0.01098 -0.02493  0.22980  0.09304 -0.02394
                  y   0.06605  0.00088  0.24607  0.02935  0.05678 -0.11609
                  z   0.05442 -0.13425 -0.08046  0.04325 -0.19568 -0.20500
  7   n           x   0.06471  0.01130 -0.02642  0.22977  0.08620 -0.01709
                  y   0.05964  0.00057  0.18119  0.02438 -0.22301  0.15791
                  z  -0.24743  0.17138  0.03212  0.12645 -0.13212 -0.12636
  8   c           x   0.06210  0.01153 -0.04734  0.22828 -0.00478  0.07240
                  y   0.05909  0.00099  0.17223  0.02366 -0.26112  0.19444
                  z  -0.36539  0.09958  0.10137  0.15047 -0.02997 -0.01554
  9   n           x   0.05985  0.01186 -0.06433  0.22711 -0.07885  0.14531
                  y   0.06124  0.00174  0.18901  0.02489 -0.18790  0.12160
                  z  -0.35093 -0.07626  0.11726  0.13933  0.03216  0.04819
 10   n           x   0.05718  0.01569 -0.05481  0.22871 -0.04262  0.11126
                  y   0.07257  0.00678  0.26931  0.03069  0.16414 -0.23103
                  z   0.05597 -0.43143 -0.04201  0.02969 -0.07649 -0.08161
 11   o           x   0.06900  0.01093  0.00823  0.23223  0.23682 -0.16522
                  y   0.06346  0.00020  0.22407  0.02771 -0.03884 -0.02147
                  z   0.07608  0.15403 -0.12950  0.05105 -0.32565 -0.34055
 12   h           x   0.06168  0.01145 -0.05174  0.22794 -0.02374  0.09100
                  y   0.05716  0.00076  0.15369  0.02225 -0.34121  0.27312
                  z  -0.46647  0.16592  0.14382  0.17674  0.00588  0.02587
 13   h           x   0.05828  0.01142 -0.08198  0.22570 -0.15474  0.21970
                  y   0.06081  0.00143  0.18684  0.02475 -0.19761  0.13161
                  z  -0.42647 -0.16015  0.16661  0.15303  0.11290  0.13504
 14   h           x   0.06344  0.01415 -0.01292  0.23144  0.14095 -0.06973
                  y   0.06982  0.00443  0.25841  0.03003  0.11429 -0.17833
                  z   0.15890 -0.14272 -0.13228  0.01877 -0.25703 -0.27298
 15   h           x   0.08714 -0.01490 -0.05519  0.22146 -0.00400  0.06101
                  y   0.05051 -0.02730  0.29869  0.03556  0.24863 -0.25580
                  z   0.15326 -0.43926 -0.09027  0.00690 -0.13364 -0.14493
 16   h           x   0.06741  0.00273 -0.07664  0.22404 -0.12016  0.18222
                  y   0.06303 -0.00744  0.27799  0.03244  0.18398 -0.22630
                  z   0.00000 -0.53481  0.00000  0.03801  0.00000  0.00000

reduced mass(g/mol)     7.185    6.642    8.633    9.376    8.460    8.060


       mode               7        8        9       10       11       12

     frequency         140.52   167.52   205.89   313.36   322.99   339.34

     symmetry            a        a        a        a        a        a   

        IR               YES      YES      YES      YES      YES      YES
|dDIP/dQ|   (a.u.)     0.0013   0.0007   0.0024   0.0087   0.0026   0.0025
intensity (km/mol)       3.08     0.76    10.65   133.00    11.83    11.11
intensity (  %   )       0.43     0.11     1.48    18.53     1.65     1.55

       RAMAN             YES      YES      YES      YES      YES      YES

  1   c           x   0.00057  0.00069  0.00199 -0.00642 -0.01272 -0.02380
                  y   0.00058  0.00060  0.00021 -0.01254 -0.09962 -0.03875
                  z   0.05905 -0.08391 -0.04907  0.00681 -0.00090  0.01377
  2   c           x  -0.00051 -0.00003  0.00049 -0.01825 -0.09191  0.05314
                  y   0.00024  0.00155  0.00217 -0.01869 -0.10347 -0.00498
                  z  -0.04098 -0.24108 -0.28946 -0.01220  0.00977  0.02252
  3   c           x  -0.00132 -0.00009 -0.00095  0.00360  0.00802  0.04949
                  y  -0.00091  0.00018  0.00119 -0.01719 -0.11260 -0.03061
                  z   0.20871 -0.10993 -0.12233 -0.00734  0.00851  0.02291
  4   n           x  -0.00167  0.00077  0.00032 -0.01015 -0.03513  0.03480
                  y   0.00101  0.00042  0.00047 -0.00670 -0.08913 -0.07694
                  z   0.28124 -0.00173 -0.18126  0.02055 -0.02019 -0.03272
  5   c           x  -0.00146 -0.00045 -0.00097  0.00018 -0.01152  0.05698
                  y   0.00208 -0.00011  0.00072 -0.00148 -0.03553 -0.04921
                  z   0.02036 -0.08789  0.02082  0.00403 -0.00738 -0.02159
  6   n           x  -0.00099  0.00237 -0.00010 -0.00710 -0.01230  0.09263
                  y   0.00178  0.00040 -0.00079  0.00070 -0.02074 -0.09164
                  z  -0.01205 -0.40700  0.30501  0.00359  0.00266  0.00465
  7   n           x  -0.00021  0.00002  0.00121 -0.03147 -0.15347  0.06038
                  y   0.00079  0.00086  0.00010  0.02009  0.11698 -0.01783
                  z  -0.31362 -0.08654 -0.15111 -0.01418  0.00183 -0.02401
  8   c           x  -0.00094 -0.00004 -0.00035 -0.00311  0.00161  0.06574
                  y  -0.00006  0.00010 -0.00153  0.03110  0.19055 -0.01827
                  z  -0.19709  0.11648  0.16425  0.00609 -0.00594 -0.01715
  9   n           x  -0.00180  0.00023 -0.00164  0.02059  0.11926  0.06682
                  y  -0.00134 -0.00036 -0.00109  0.00738  0.04713 -0.01680
                  z   0.16686  0.11782  0.19780  0.01503  0.00102  0.03577
 10   n           x   0.01407 -0.00783  0.00534 -0.04363 -0.05966 -0.07566
                  y  -0.00462 -0.01126  0.00142  0.02708  0.13363  0.30483
                  z  -0.30232  0.23792 -0.03498 -0.06855  0.03592 -0.01322
 11   o           x   0.00174  0.00002 -0.00141  0.05814  0.20989 -0.31155
                  y   0.00019 -0.00022  0.00013 -0.01555 -0.10539 -0.02997
                  z   0.18333  0.36248  0.01797  0.00230 -0.00197 -0.00188
 12   h           x  -0.00081 -0.00018 -0.00093  0.00298  0.03395  0.06701
                  y   0.00027 -0.00036 -0.00376  0.05717  0.32760 -0.01511
                  z  -0.35338  0.26265  0.38550  0.01678 -0.01632 -0.04358
 13   h           x  -0.00150 -0.00050 -0.00431  0.05296  0.30520  0.07643
                  y  -0.00104  0.00008 -0.00082  0.01132  0.07107 -0.01624
                  z   0.25395  0.31296  0.40770  0.03076 -0.01222  0.01085
 14   h           x   0.00366 -0.00232 -0.00366 -0.02160 -0.01514  0.09958
                  y   0.00406  0.00299  0.01001 -0.02747 -0.02124 -0.08902
                  z  -0.07253 -0.24751  0.57366 -0.18003  0.07680 -0.07523
 15   h           x  -0.09404  0.05197 -0.03154  0.20412 -0.07057  0.23516
                  y   0.00390  0.08499 -0.02513 -0.22986  0.41778  0.52712
                  z  -0.53755  0.20276 -0.07318  0.89757 -0.46596  0.28061
 16   h           x  -0.02200  0.01125 -0.01087  0.12183 -0.35207 -0.42157
                  y  -0.00017  0.02626 -0.01691 -0.01509  0.18152  0.34685
                  z  -0.29724  0.49617 -0.17471 -0.16539  0.10543  0.02380

reduced mass(g/mol)     6.342    7.231    4.886    1.223    3.840    4.453


       mode              13       14       15       16       17       18

     frequency         368.12   487.07   494.07   532.31   581.99   624.40

     symmetry            a        a        a        a        a        a   

        IR               YES      YES      YES      YES      YES      YES
|dDIP/dQ|   (a.u.)     0.0011   0.0057   0.0085   0.0014   0.0067   0.0061
intensity (km/mol)       2.27    57.54   128.93     3.36    79.01    65.47
intensity (  %   )       0.32     8.02    17.96     0.47    11.01     9.12

       RAMAN             YES      YES      YES      YES      YES      YES

  1   c           x  -0.00707  0.00430 -0.01004  0.12882  0.00419 -0.03950
                  y  -0.01145  0.10620 -0.05385  0.03719  0.00034 -0.04081
                  z  -0.08999  0.01322  0.01079  0.00819 -0.04704  0.10657
  2   c           x   0.00245 -0.11186  0.04176  0.09586  0.00124 -0.00350
                  y  -0.00767 -0.01199 -0.00654  0.15979 -0.00029  0.01518
                  z  -0.28638  0.01055  0.01035 -0.00004 -0.05454 -0.01882
  3   c           x   0.00886 -0.04530  0.02202 -0.10648 -0.00206  0.00796
                  y  -0.01350 -0.05526  0.00951  0.18017 -0.00153  0.03889
                  z  -0.23162 -0.00784 -0.00714 -0.00474 -0.02104 -0.06962
  4   n           x   0.00322  0.03790 -0.01778  0.00633 -0.00312  0.03449
                  y  -0.01889 -0.14893  0.06259 -0.15142 -0.00326  0.02930
                  z   0.41466 -0.01602 -0.01300  0.00052  0.02312  0.00843
  5   c           x   0.01120  0.14761 -0.06410 -0.06306 -0.00156  0.02884
                  y  -0.00669 -0.02292  0.02481 -0.23692 -0.00010  0.00009
                  z   0.21122  0.02032  0.02205  0.01153  0.02505 -0.02441
  6   n           x   0.01780  0.10125 -0.04877  0.12882  0.00746 -0.04476
                  y  -0.01333  0.00068  0.01576 -0.22487 -0.00210  0.00144
                  z   0.02846 -0.02551 -0.02978 -0.00229 -0.01085  0.06771
  7   n           x  -0.00062 -0.15066  0.05866  0.12347 -0.00039  0.00458
                  y   0.00039 -0.02523  0.00699  0.08954  0.00143  0.00049
                  z   0.16512 -0.01276 -0.01163 -0.00490  0.04326 -0.04751
  8   c           x   0.01044 -0.11124  0.05310 -0.05647 -0.00002 -0.01995
                  y   0.00483 -0.00107  0.00324  0.00913  0.00184 -0.01408
                  z   0.18511 -0.00311 -0.00260  0.00327 -0.02262  0.03681
  9   n           x   0.01868 -0.07301  0.04177 -0.17919 -0.00029 -0.03427
                  y  -0.00171 -0.02958  0.00391  0.17099  0.00208  0.00805
                  z  -0.31802  0.01623  0.01468 -0.00049  0.10906  0.02729
 10   n           x   0.00148  0.19357 -0.03765 -0.17933 -0.00269  0.04831
                  y   0.06642  0.06595  0.01090 -0.03159  0.00276  0.01145
                  z  -0.13577  0.08667  0.09242  0.01488 -0.00660  0.01187
 11   o           x  -0.04726 -0.00518 -0.01351  0.14408 -0.00206  0.01795
                  y  -0.01023  0.12105 -0.05854  0.02870  0.00055 -0.05000
                  z   0.02679 -0.00068 -0.00113 -0.00111  0.01062 -0.01817
 12   h           x   0.01236 -0.10412  0.05246 -0.10147 -0.00006 -0.02645
                  y   0.01291  0.04011 -0.00485 -0.17712  0.00168 -0.03832
                  z   0.50029 -0.00817 -0.00680  0.01046 -0.09120  0.09690
 13   h           x   0.02998 -0.08239  0.05724 -0.32980  0.00489 -0.08603
                  y   0.00049 -0.02981  0.00579  0.15352  0.00000  0.00126
                  z   0.04469  0.03605  0.03685  0.02942 -0.96702 -0.24956
 14   h           x   0.01646  0.01307 -0.00452  0.11297  0.00396 -0.03046
                  y  -0.01844 -0.12318  0.06520 -0.25419  0.00365 -0.03556
                  z  -0.01358 -0.17828 -0.14702 -0.11021  0.17322 -0.89732
 15   h           x  -0.06782  0.06418 -0.22662 -0.05392 -0.01259  0.07185
                  y   0.06845 -0.03303 -0.13800  0.12443 -0.02323  0.12680
                  z  -0.27478 -0.05871 -0.09123  0.01872  0.01628 -0.13151
 16   h           x  -0.11274  0.06436 -0.12088 -0.51061  0.00157 -0.01844
                  y   0.05295 -0.04865 -0.11859 -0.03451 -0.00646  0.04332
                  z  -0.30606 -0.85026 -0.90462 -0.25495 -0.06332  0.16407

reduced mass(g/mol)     7.740    3.421    1.519    5.799    1.274    1.533


       mode              19       20       21       22       23       24

     frequency         631.45   669.35   674.82   718.99   746.33   803.49

     symmetry            a        a        a        a        a        a   

        IR               YES      YES      YES      YES      YES      YES
|dDIP/dQ|   (a.u.)     0.0027   0.0020   0.0030   0.0047   0.0008   0.0037
intensity (km/mol)      13.31     6.77    15.85    39.43     1.13    24.81
intensity (  %   )       1.85     0.94     2.21     5.49     0.16     3.46

       RAMAN             YES      YES      YES      YES      YES      YES

  1   c           x  -0.02120 -0.11970  0.17151 -0.04577  0.00623 -0.00427
                  y  -0.25014  0.02412 -0.03230  0.00009 -0.00541 -0.00110
                  z  -0.07114 -0.08325  0.03800  0.30892 -0.28165  0.30316
  2   c           x   0.01306 -0.02329  0.03484 -0.01058  0.00271 -0.00377
                  y   0.02652  0.03822 -0.05461  0.01198 -0.00350  0.00410
                  z   0.00781 -0.07299 -0.04444  0.18939  0.04211 -0.29050
  3   c           x  -0.04186  0.05182 -0.07362  0.02102 -0.00182  0.00701
                  y   0.13172  0.04791 -0.06849  0.02156 -0.00166  0.00340
                  z   0.04581 -0.09725 -0.13953 -0.36357  0.17204  0.22014
  4   n           x   0.05704  0.08356 -0.12122  0.03389 -0.00494  0.01013
                  y   0.10904  0.00844 -0.01042  0.01070  0.00633  0.01077
                  z   0.00078 -0.00280 -0.00098 -0.05665 -0.22795 -0.08959
  5   c           x   0.09686  0.03900 -0.05589  0.01946  0.00507  0.00197
                  y   0.08080 -0.06183  0.08793 -0.01917  0.00868 -0.00298
                  z   0.00261  0.04458  0.03819  0.38217  0.44108  0.08881
  6   n           x   0.05135 -0.13362  0.18522 -0.02281  0.01057  0.00485
                  y  -0.02477 -0.00615  0.01178 -0.00763  0.00181 -0.00307
                  z  -0.04039  0.02496  0.02803 -0.24124 -0.01094 -0.10236
  7   n           x  -0.02016  0.01861 -0.02436 -0.00306 -0.00245 -0.00829
                  y   0.07015 -0.03878  0.05272 -0.01116  0.00366 -0.00400
                  z   0.03520  0.20855  0.11497 -0.14280 -0.01737  0.12767
  8   c           x  -0.14061  0.01597 -0.01992 -0.00124 -0.00422 -0.00404
                  y   0.01370 -0.04881  0.07083 -0.01693  0.00266 -0.00135
                  z  -0.02659 -0.18715 -0.11177  0.07338  0.01054 -0.19648
  9   n           x  -0.19043  0.00548 -0.00674  0.00138 -0.00169  0.00161
                  y   0.08163 -0.01948  0.02567 -0.00745  0.00050 -0.00574
                  z  -0.01436  0.11590  0.10160  0.10646 -0.05266 -0.00491
 10   n           x   0.18704  0.01143 -0.01536 -0.00488  0.00059 -0.00652
                  y   0.08687  0.03131 -0.05054  0.01748  0.00180  0.00005
                  z  -0.00878 -0.01318 -0.00958 -0.10750 -0.08849 -0.01302
 11   o           x  -0.00903  0.06377 -0.09134  0.01954 -0.00599  0.00223
                  y  -0.29294  0.02203 -0.03006  0.00099 -0.00896  0.00081
                  z   0.01072  0.02056 -0.00937 -0.09876  0.09651 -0.08176
 12   h           x  -0.17209  0.01578 -0.01843 -0.00008 -0.00462 -0.00367
                  y  -0.09770 -0.05259  0.07995 -0.01189  0.00206  0.00267
                  z  -0.07241 -0.62691 -0.41377 -0.12984  0.19373  0.82443
 13   h           x  -0.32784 -0.08385  0.12191 -0.03515  0.00490 -0.00235
                  y   0.06789 -0.03016  0.04297 -0.01231  0.00126 -0.00616
                  z   0.14731  0.50404  0.31737  0.08253 -0.07524  0.02310
 14   h           x   0.11490 -0.22993  0.33433 -0.08120  0.01421  0.00130
                  y   0.08419 -0.13504  0.17511 -0.03325 -0.03517  0.00202
                  z   0.58199 -0.09293 -0.43232  0.63690 -0.73085  0.07352
 15   h           x   0.19096  0.11741 -0.18416 -0.00982 -0.06945 -0.00792
                  y   0.00760  0.16154 -0.20421 -0.00631 -0.05746 -0.01253
                  z   0.12285 -0.00264 -0.10606 -0.05162 -0.11591  0.00797
 16   h           x   0.27558 -0.19825  0.27401 -0.04286  0.02614 -0.01063
                  y   0.06953  0.05411 -0.06255  0.05044  0.02645  0.00426
                  z  -0.07255 -0.02195  0.14727  0.13374  0.14154  0.01997

reduced mass(g/mol)     5.153    3.176    3.272    7.164    5.333    4.555


       mode              25       26       27       28       29       30

     frequency         832.83   842.00   949.94  1047.44  1070.11  1075.51

     symmetry            a        a        a        a        a        a   

        IR               YES      YES      YES      YES      YES      YES
|dDIP/dQ|   (a.u.)     0.0009   0.0024   0.0023   0.0022   0.0030   0.0031
intensity (km/mol)       1.59    10.58     9.42     8.99    15.58    17.42
intensity (  %   )       0.22     1.47     1.31     1.25     2.17     2.43

       RAMAN             YES      YES      YES      YES      YES      YES

  1   c           x   0.00187 -0.08412 -0.02621 -0.08052  0.02214 -0.25872
                  y  -0.00022 -0.00619 -0.01932  0.01966 -0.00212 -0.04767
                  z   0.08558  0.02863 -0.00204  0.00182  0.00022 -0.00189
  2   c           x  -0.00258  0.05581 -0.12801 -0.02382  0.00633 -0.03397
                  y   0.00173 -0.01677 -0.03398  0.04586  0.01260  0.12208
                  z  -0.12799 -0.02617  0.00001 -0.00020  0.00005  0.00036
  3   c           x   0.00638 -0.16852 -0.06157 -0.02153  0.02885  0.09413
                  y   0.00267 -0.07734  0.15773  0.01521 -0.00339  0.07449
                  z   0.11093  0.02009  0.00158 -0.00074 -0.00001  0.00027
  4   n           x   0.00910 -0.24679 -0.01528 -0.06474  0.00102  0.05269
                  y   0.01297 -0.36378  0.00889  0.07663 -0.04472 -0.16595
                  z  -0.03941 -0.01329 -0.00002  0.00093  0.00010  0.00136
  5   c           x  -0.00027  0.02173 -0.00725 -0.02455 -0.00385  0.04592
                  y  -0.00235  0.06793  0.00382  0.04192  0.00830 -0.01232
                  z   0.02556  0.01682 -0.00410 -0.01488 -0.00065 -0.01783
  6   n           x   0.00729 -0.20294  0.09162  0.03981 -0.01829  0.16738
                  y  -0.00365  0.10628 -0.00238 -0.21239  0.01138  0.15991
                  z  -0.02530 -0.01635  0.00317  0.00338 -0.00015  0.00894
  7   n           x  -0.00980  0.27660 -0.22367  0.02046 -0.00540  0.01749
                  y  -0.00229  0.05655 -0.37429 -0.00140  0.04760  0.02402
                  z  -0.00250  0.00298 -0.00201  0.00014  0.00033  0.00009
  8   c           x  -0.00543  0.15524  0.33811  0.02100  0.13253 -0.05410
                  y  -0.00090  0.00101 -0.06484 -0.00358  0.08695 -0.06224
                  z   0.16946  0.01640  0.00000 -0.00005 -0.00001 -0.00039
  9   n           x   0.00133 -0.03369  0.04901  0.03431 -0.07902  0.04798
                  y  -0.00674  0.18461  0.34374 -0.05024 -0.12008 -0.03937
                  z  -0.05820 -0.00729  0.00100 -0.00011 -0.00049 -0.00016
 10   n           x  -0.00696  0.18381 -0.01319  0.01998 -0.01191 -0.14566
                  y  -0.00221  0.08017  0.00202  0.10736  0.01102  0.02333
                  z  -0.00154 -0.00870  0.00242  0.01251 -0.00021  0.00997
 11   o           x   0.00010  0.00874  0.00381  0.03919 -0.00354  0.02974
                  y   0.00076 -0.02270 -0.03935  0.02616 -0.00600 -0.04226
                  z  -0.02222 -0.00789  0.00055 -0.00034 -0.00007  0.00073
 12   h           x  -0.00142  0.09008  0.40601  0.04131  0.22075 -0.06843
                  y   0.01608 -0.32159  0.15903  0.06763  0.44268 -0.11063
                  z  -0.96150 -0.09890  0.00135  0.00021  0.00397 -0.00095
 13   h           x  -0.00414  0.08117 -0.44102  0.10754 -0.79940 -0.00275
                  y  -0.00755  0.20167  0.28907 -0.04382 -0.22780 -0.04712
                  z  -0.04914  0.00174  0.00367 -0.00059 -0.00262 -0.00047
 14   h           x   0.01035 -0.30622  0.13481 -0.18965 -0.00959  0.29325
                  y   0.00054 -0.01696  0.04749 -0.52774  0.02379  0.32566
                  z  -0.01560  0.04824 -0.01836 -0.01395 -0.00045 -0.04172
 15   h           x  -0.00432  0.07142 -0.08448 -0.33675 -0.06191 -0.52590
                  y  -0.00383 -0.07979 -0.07253 -0.27001 -0.04854 -0.38013
                  z   0.00731  0.00582 -0.02430 -0.12501 -0.00520 -0.10650
 16   h           x  -0.01500  0.48117  0.10255  0.60528  0.06878  0.35133
                  y  -0.00205  0.06372 -0.00973  0.05203  0.00317 -0.03003
                  z  -0.00462  0.09652  0.01972  0.07806  0.01589  0.08950

reduced mass(g/mol)     1.815    7.078    7.011    2.136    1.637    3.685


       mode              31       32       33       34       35       36

     frequency        1139.91  1182.52  1310.64  1338.34  1376.45  1393.62

     symmetry            a        a        a        a        a        a   

        IR               YES      YES      YES      YES      YES      YES
|dDIP/dQ|   (a.u.)     0.0042   0.0043   0.0013   0.0046   0.0018   0.0036
intensity (km/mol)      31.31    32.83     2.79    37.45     5.76    23.10
intensity (  %   )       4.36     4.57     0.39     5.22     0.80     3.22

       RAMAN             YES      YES      YES      YES      YES      YES

  1   c           x   0.22588 -0.09603  0.05060 -0.02750  0.11682  0.09741
                  y   0.01603  0.00519  0.00136 -0.01611  0.01775  0.01763
                  z   0.00269  0.00035 -0.00133 -0.00191  0.00004 -0.00006
  2   c           x   0.05121 -0.09064 -0.00969 -0.07089 -0.31013 -0.28706
                  y  -0.04810 -0.19521  0.09879 -0.08156  0.10220 -0.08078
                  z  -0.00049 -0.00123  0.00079 -0.00015  0.00087 -0.00047
  3   c           x   0.08281  0.05616  0.04608 -0.02630 -0.17088 -0.02349
                  y  -0.02369 -0.15062  0.02187 -0.02674  0.07534  0.11276
                  z  -0.00075  0.00011 -0.00003  0.00006 -0.00052  0.00038
  4   n           x   0.19074  0.04852 -0.03176  0.09110  0.13346 -0.01293
                  y  -0.09290  0.09565 -0.02382  0.02735 -0.02641 -0.02981
                  z   0.00156  0.00048 -0.00113 -0.00101  0.00130  0.00008
  5   c           x   0.03358  0.04741 -0.10323 -0.08497  0.05989 -0.03202
                  y   0.05070  0.00389 -0.03459 -0.09996  0.08468  0.07210
                  z  -0.01256 -0.00431  0.00569  0.00364 -0.00124  0.00226
  6   n           x  -0.16856  0.07595 -0.05385 -0.04721 -0.00101  0.00930
                  y   0.00916 -0.00491 -0.06045 -0.06026  0.01052 -0.02033
                  z   0.00069  0.00205 -0.00152 -0.00062  0.00010 -0.00033
  7   n           x  -0.06310  0.05586 -0.11068  0.09810  0.07444  0.17029
                  y  -0.03080  0.09977  0.05541 -0.03534  0.00284  0.02852
                  z   0.00006  0.00048  0.00018 -0.00008  0.00008  0.00046
  8   c           x  -0.08500  0.08263  0.05546 -0.02139  0.18595 -0.17390
                  y  -0.00501  0.03362 -0.01234  0.03016  0.08391 -0.08298
                  z  -0.00007  0.00019 -0.00011  0.00016  0.00067 -0.00099
  9   n           x  -0.02255 -0.08211  0.07933 -0.05867 -0.08375  0.26725
                  y   0.08471  0.08930 -0.04299  0.02231 -0.14685  0.03420
                  z   0.00048  0.00016 -0.00013  0.00015 -0.00044  0.00060
 10   n           x  -0.11436 -0.05096  0.05812  0.02899 -0.04774  0.00996
                  y   0.09721 -0.01358  0.03006  0.05980 -0.01882 -0.01892
                  z   0.00818  0.00238 -0.00059  0.00048 -0.00363 -0.00159
 11   o           x  -0.03863  0.00357  0.00512  0.01124 -0.01052 -0.01319
                  y  -0.01775  0.05569  0.00277  0.06661 -0.08107 -0.02670
                  z  -0.00060  0.00020  0.00022  0.00058 -0.00034 -0.00012
 12   h           x  -0.13002 -0.10370 -0.11259  0.04947  0.11224 -0.12818
                  y  -0.14900 -0.79386 -0.75776  0.33395 -0.40149  0.17925
                  z  -0.00187 -0.00350 -0.00377  0.00174 -0.00150  0.00060
 13   h           x  -0.08741 -0.41450 -0.21300  0.15202  0.71165 -0.80823
                  y   0.08518  0.04931 -0.08959  0.05592 -0.05529 -0.10961
                  z   0.00066  0.00034 -0.00042 -0.00019 -0.00095 -0.00256
 14   h           x  -0.28502 -0.03744  0.29082  0.49602 -0.03527 -0.02961
                  y  -0.13534 -0.15621  0.38997  0.65334 -0.03565 -0.07483
                  z  -0.00416 -0.00578 -0.00267 -0.01090 -0.00114  0.00003
 15   h           x  -0.54274 -0.09860  0.11070 -0.02109 -0.08085  0.08471
                  y  -0.37528 -0.05597  0.08329 -0.00509 -0.06818  0.06454
                  z  -0.09834 -0.01799  0.00255 -0.01451  0.03004  0.01786
 16   h           x   0.45353 -0.05367  0.19328  0.33756 -0.17850 -0.08383
                  y   0.03973 -0.01477  0.01587  0.02603 -0.00493 -0.00893
                  z   0.09382  0.00468 -0.01431  0.00856  0.01709 -0.01657

reduced mass(g/mol)     3.271    2.685    1.806    1.880    4.115    4.088


       mode              37       38       39       40       41       42

     frequency        1453.97  1532.01  1565.07  1602.71  1631.74  1671.74

     symmetry            a        a        a        a        a        a   

        IR               YES      YES      YES      YES      YES      YES
|dDIP/dQ|   (a.u.)     0.0032   0.0005   0.0053   0.0071   0.0086   0.0201
intensity (km/mol)      18.47     0.40    49.18    89.25   132.84   717.68
intensity (  %   )       2.57     0.06     6.85    12.44    18.51   100.00

       RAMAN             YES      YES      YES      YES      YES      YES

  1   c           x  -0.03423 -0.03459  0.04870 -0.06008  0.07344 -0.06594
                  y  -0.00935 -0.01663  0.03243 -0.02958  0.00316 -0.04784
                  z  -0.00129 -0.00063  0.00018 -0.00054  0.00015  0.00032
  2   c           x  -0.10242  0.04663 -0.09095  0.06131 -0.15671  0.04586
                  y   0.36043  0.00083  0.09863 -0.11074 -0.14649 -0.03005
                  z   0.00244 -0.00014  0.00074 -0.00045 -0.00077 -0.00033
  3   c           x   0.23767 -0.16156  0.05175 -0.00083  0.44306 -0.02392
                  y  -0.36297 -0.06326 -0.12685  0.11475  0.22197 -0.00419
                  z  -0.00217  0.00006 -0.00071  0.00004  0.00066  0.00032
  4   n           x  -0.00970  0.07394  0.03959  0.06415 -0.18930  0.19705
                  y  -0.04829 -0.00527  0.02543 -0.08871 -0.07587 -0.09476
                  z  -0.00010  0.00047 -0.00084 -0.00092 -0.00014 -0.00020
  5   c           x   0.01381  0.12252 -0.12336 -0.02855 -0.02619 -0.40070
                  y   0.33081  0.16465 -0.08411  0.19744  0.04930  0.12175
                  z   0.00677 -0.00519  0.01024  0.01619 -0.00513 -0.00762
  6   n           x  -0.02660 -0.06157  0.04857  0.00597 -0.01801  0.09352
                  y  -0.18256 -0.12598  0.08645 -0.06540 -0.06095  0.03420
                  z  -0.00069  0.00064 -0.00074 -0.00102 -0.00027  0.00155
  7   n           x   0.09347 -0.09236 -0.00911 -0.02023 -0.01082 -0.01417
                  y  -0.18394  0.22481  0.09797  0.00056  0.08847  0.00119
                  z  -0.00087  0.00117  0.00032 -0.00005  0.00031  0.00008
  8   c           x  -0.08843  0.08446  0.04401  0.00395  0.04689  0.00279
                  y   0.09872 -0.32688 -0.17936  0.02577 -0.12943  0.00045
                  z   0.00039 -0.00137 -0.00067  0.00013 -0.00044 -0.00003
  9   n           x  -0.07113  0.03173 -0.04538 -0.01481 -0.18034 -0.01101
                  y   0.11741  0.04432  0.05276 -0.02680  0.00511 -0.00002
                  z   0.00032  0.00011  0.00004 -0.00003 -0.00015  0.00014
 10   n           x  -0.03019 -0.01634 -0.02630 -0.09608  0.06329  0.16738
                  y  -0.07921 -0.01651 -0.00336 -0.07081  0.00356  0.02998
                  z  -0.00454 -0.00381  0.00663  0.00766 -0.00370 -0.01554
 11   o           x   0.03191  0.01510 -0.00942  0.00873 -0.01110  0.00698
                  y  -0.02136  0.04050 -0.05935  0.04801  0.02442  0.03328
                  z  -0.00001  0.00019 -0.00018  0.00023  0.00005 -0.00001
 12   h           x  -0.10116  0.26388  0.15880 -0.01420  0.13788  0.00131
                  y   0.14261  0.35041  0.26550 -0.05721  0.20277 -0.00908
                  z   0.00060  0.00105  0.00175  0.00012  0.00084 -0.00073
 13   h           x  -0.18060 -0.00449  0.09160  0.09036  0.55168  0.01935
                  y   0.12168  0.03787  0.07860 -0.01419  0.11909  0.00686
                  z   0.00081  0.00093  0.00080 -0.00056  0.00167 -0.00002
 14   h           x   0.31570  0.32469 -0.23373  0.03311  0.06894 -0.21481
                  y   0.24737  0.37120 -0.27387 -0.03430  0.03955 -0.36367
                  z  -0.00478 -0.00860  0.00579  0.00165  0.00061 -0.00775
 15   h           x   0.14887 -0.19201  0.30653  0.43319 -0.11161 -0.08802
                  y   0.12512 -0.25186  0.44693  0.64106 -0.24551 -0.37770
                  z   0.05810  0.04630 -0.06712 -0.06389  0.03986  0.12335
 16   h           x  -0.39040 -0.41874  0.55636  0.45505 -0.34711 -0.57643
                  y  -0.04128  0.03846 -0.08819 -0.16259  0.06561  0.14585
                  z  -0.04603  0.06364 -0.12998 -0.20236  0.07704  0.16681

reduced mass(g/mol)     7.426    4.266    2.481    2.278    5.702    4.202


       mode              43       44       45       46       47       48

     frequency        1845.14  3233.09  3579.81  3586.91  3641.48  3699.34

     symmetry            a        a        a        a        a        a   

        IR               YES      YES      YES      YES      YES      YES
|dDIP/dQ|   (a.u.)     0.0184   0.0006   0.0057   0.0062   0.0067   0.0052
intensity (km/mol)     604.47     0.62    57.08    67.53    79.92    48.04
intensity (  %   )      84.23     0.09     7.95     9.41    11.14     6.69

       RAMAN             YES      YES      YES      YES      YES      YES

  1   c           x   0.13027  0.00016  0.00009  0.00017  0.00004 -0.00009
                  y  -0.73756 -0.00026  0.00052  0.00038 -0.00016 -0.00011
                  z  -0.00209  0.00000  0.00007 -0.00004  0.00000 -0.00003
  2   c           x  -0.10230 -0.00269  0.00023  0.00035  0.00015  0.00003
                  y   0.15724  0.00017 -0.00014 -0.00010  0.00080  0.00002
                  z   0.00106  0.00000  0.00002  0.00000  0.00001 -0.00001
  3   c           x  -0.00830 -0.00202  0.00007 -0.00041 -0.00234  0.00000
                  y  -0.00386  0.00092 -0.00009 -0.00043  0.00104 -0.00010
                  z  -0.00021  0.00000  0.00019 -0.00008 -0.00001 -0.00006
  4   n           x  -0.04305  0.00023 -0.00032  0.00126 -0.00026  0.00017
                  y   0.01779  0.00003  0.00004 -0.00077 -0.00009 -0.00002
                  z   0.00054  0.00000 -0.00016  0.00006  0.00001  0.00016
  5   c           x   0.06319 -0.00003 -0.00197  0.00025  0.00044  0.00056
                  y  -0.05241  0.00008 -0.00126 -0.00102 -0.00020  0.00115
                  z   0.00009  0.00001 -0.00112  0.00051  0.00002  0.00011
  6   n           x  -0.01494  0.00003 -0.02386 -0.05231 -0.00058 -0.00068
                  y   0.08765 -0.00007  0.01806  0.04153  0.00054  0.00010
                  z   0.00038  0.00000 -0.00097 -0.00224 -0.00002 -0.00009
  7   n           x   0.00142 -0.00070 -0.00007  0.00010 -0.00037 -0.00002
                  y  -0.00178  0.00205  0.00008 -0.00001  0.00115  0.00001
                  z  -0.00011  0.00001 -0.00003  0.00001  0.00001  0.00001
  8   c           x   0.01650  0.08778 -0.00015 -0.00007  0.00252 -0.00003
                  y  -0.02636 -0.02080 -0.00012  0.00004  0.00121 -0.00004
                  z  -0.00010  0.00003 -0.00001  0.00000  0.00001  0.00000
  9   n           x   0.01864 -0.00179  0.00014 -0.00005  0.01055  0.00001
                  y   0.00072 -0.00042 -0.00034  0.00091 -0.07464  0.00017
                  z  -0.00005 -0.00001  0.00000 -0.00001  0.00016 -0.00001
 10   n           x  -0.02218 -0.00002  0.04174 -0.01884 -0.00065 -0.03149
                  y  -0.00148 -0.00001  0.01854 -0.00935 -0.00006  0.07876
                  z  -0.00004 -0.00002 -0.02081  0.00928  0.00020  0.01002
 11   o           x  -0.00859  0.00003 -0.00002 -0.00008  0.00000  0.00000
                  y   0.42740  0.00009 -0.00009  0.00009  0.00008  0.00004
                  z   0.00115  0.00000 -0.00002  0.00000  0.00000  0.00000
 12   h           x   0.02653 -0.97029  0.00035  0.00049 -0.00870  0.00008
                  y  -0.01833  0.22404 -0.00003 -0.00005  0.00005 -0.00001
                  z   0.00024 -0.00033  0.00001  0.00001 -0.00003  0.00003
 13   h           x   0.00144  0.00937 -0.00072  0.00167 -0.13582  0.00021
                  y  -0.00600 -0.00991  0.00498 -0.01242  0.98772 -0.00214
                  z   0.00016  0.00006  0.00003  0.00002 -0.00260  0.00000
 14   h           x  -0.31437  0.00058  0.32277  0.71935  0.00733  0.00726
                  y  -0.30850 -0.00038 -0.24646 -0.55014 -0.00568 -0.00639
                  z   0.00139  0.00003  0.01412  0.03157  0.00030  0.00034
 15   h           x  -0.00070 -0.00012 -0.47727  0.21365  0.00628  0.51628
                  y   0.03610  0.00006  0.38166 -0.16978 -0.00496 -0.40722
                  z  -0.00614  0.00014  0.21899 -0.09668 -0.00261 -0.24621
 16   h           x   0.07467 -0.00014 -0.06920  0.03319  0.00063 -0.08442
                  y  -0.01731 -0.00025 -0.63121  0.29551  0.00549 -0.69382
                  z  -0.00896  0.00007  0.08255 -0.03836 -0.00054  0.10535

reduced mass(g/mol)    10.535    1.098    1.052    1.073    1.082    1.103


         **************************************************************
         *                                                            *
         *  zero point VIBRATIONAL energy  :      0.1171533  Hartree  *
         *    SCF-energy                   :   -541.8758926           *
         *    SCF + E(vib0)                :   -541.7587393           *
         *                                                            *
         **************************************************************




 time elapsed for vibrational analysis     0.20 sec


    ------------------------------------------------------------------------
         total  cpu-time : 22 minutes and 24 seconds
         total wall-time : 22 minutes and 24 seconds
    ------------------------------------------------------------------------


   ****  force : all done  ****


    2012-08-16 20:43:55.056 



PS:

Read file <625168.err> for stderr output of this job.

