 Search path for license: 
 /opt/src/turbomole63/TURBOMOLE//LICENSE/turbo_license.ctd
 Checking license file: /opt/src/turbomole63/TURBOMOLE//LICENSE/turbo_license.ctd
==========================================================
                  license information 
   Version: V6.3                                                   
   Date: 05/11/12                                                  
   Licensee:                                                       
     Zhenggang Lan                                                 
     Qingdao Institute of Bioenergy and Bioprocess Technology      
     Chinese Academy of Science, Qingdao                           
   Nodes: 48                                                       
==========================================================
 operating system is UNIX !
 hostname is         node22.qibebt.ac.cn

 force(node22.qibebt.ac.cn) : TURBOMOLE V6.3.1 3 Jun 2011 at 17:25:44
 Copyright (C) 2011 TURBOMOLE GmbH, Karlsruhe


    2013-06-18 18:02:13.510 

           Shared-memory Parallelization with    8 CPUs.
           C. van Wullen, J. Comput. Chem. (in press, DOI 10.1002/jcc.21692)


                             T U R B O M O L E   

                          a o f o r c e - program

                        using direct algorithms for

                       SCF level calculations of
                         * harmonic force constants
                         * hyperpolarizabilities
                         * IR and RAMAN intensities

                       DFT level calculations of
                         * harmonic force constants
                         * IR intensities
                                                   
       Stephan Boecker, Peter Deglmann, Filipp Furche and Marco Haeser
                          Quantum Chemistry Group
                          Universitaet  Karlsruhe
                                   Germany

 
 
 
 
     References :
 
       RI-J implementation:
         Peter Deglmann, Klaus May, Filipp Furche, Reinhart Ahlrichs
                 Chem. Phys. Lett. 384:103 (2004)
 
       Efficiency, technical details:
         Peter Deglmann, Filipp Furche, Reinhart Ahlrichs
                 Chem. Phys. Lett. 362:511 (2002)
 
       Search of lowest eigenvalues by iterative diagonalization:
         Peter Deglmann, Filipp Furche
                 J. Chem. Phys. 117:9535 (2002)
 
 


              +--------------------------------------------------+
              | Atomic coordinate, charge and isotop information |
              +--------------------------------------------------+


              atomic coordinates              atom shells charge pseudo isotop
    -3.92233986    8.76923784    0.86953640    c      6    6.000    0     0
    -2.99019693    6.18730264    0.88990174    c      6    6.000    0     0
    -0.46039843    5.62656310    0.19226849    c      6    6.000    0     0
     1.04771534    7.61807823   -0.49156923    c      6    6.000    0     0
     0.15325115   10.14777539   -0.51452527    c      6    6.000    0     0
    -2.29225868   10.82776154    0.13449033    c      6    6.000    0     0
     0.20487818    3.67691565    0.21836292    h      3    1.000    0     0
     3.00937714    7.27547172   -1.03818256    h      3    1.000    0     0
    -5.47422042   14.42041485    0.81940512    c      6    6.000    0     0
    -3.16261299   13.43094032    0.07353830    c      6    6.000    0     0
    -3.41449125   18.06887846   -0.53202197    c      6    6.000    0     0
    -5.61320543   17.05451131    0.47996311    c      6    6.000    0     0
    -3.72911938   20.75134811   -0.82372557    c      6    6.000    0     0
    -6.12486305   21.42368551    0.00841368    c      6    6.000    0     0
    -7.52754401   19.11733709    0.91011227    c      6    6.000    0     0
    -6.96296182   13.21413608    1.56868794    h      3    1.000    0     0
    -6.58900055   24.04770957   -0.22088720    c      6    6.000    0     0
    -8.33741531   25.00044152    0.31307385    h      3    1.000    0     0
    -4.54243485   25.29994434   -1.21850553    c      6    6.000    0     0
    -4.35736291   27.31312257   -1.60528869    h      3    1.000    0     0
    -2.04170696   23.30599366   -1.88513643    s      8   16.000    0     0
    -1.16137827   15.81743895   -1.07434064    s      8   16.000    0     0
     1.48432931   11.62671556   -1.07033899    h      3    1.000    0     0
    -7.29643261    6.08216275    2.19566589    s      8   16.000    0     0
    -8.07929626   19.26686121    2.91572585    h      3    1.000    0     0
    -9.28115764   18.79481927   -0.17171314    h      3    1.000    0     0
    -6.33259006    8.93201410    1.57476854    n      6    7.000    0     0
    -4.73025261    4.51168858    1.60712408    n      6    7.000    0     0
 

     center of nuclear mass  :   -3.77836099   14.21386884    0.09006464

     center of nuclear charge:   -3.78501318   14.25195536    0.09150603


              +--------------------------------------------------+
              |               basis set information              |
              +--------------------------------------------------+


              we will work with the  1s 3p 5d  7f  9g ... basis set
              ...i.e. with spherical basis functions...


   type   atoms  prim   cont   basis
   ---------------------------------------------------------------------------
    c       15     24     14   def2-SVP   [3s2p1d|7s4p1d]
    h        8      7      5   def2-SVP   [2s1p|4s1p]
    s        3     36     18   def2-SVP   [4s3p1d|10s7p1d]
    n        2     24     14   def2-SVP   [3s2p1d|7s4p1d]
   ---------------------------------------------------------------------------
   total:   28    572    332
   ---------------------------------------------------------------------------

   total number of primitive shells          :   47
   total number of contracted shells         :  150
   total number of cartesian basis functions :  352
   total number of SCF-basis functions       :  332


 symmetry group of the molecule :   c1 

 the group has the following generators :
   c1(z)

    1 symmetry operations found

 there are 1 real representations :   a   

 maximum number of shells which are related by symmetry :  1


 determining totally symmetric integral contributions 
    - equivalent to irreducible tensor elements - 
 which can be formed within each triple of representations :

             representation triple      contributions

              a     a     a               1

    mo occupation :
   irrep   mo's   occupied
    a      332       80
 
 number of basis functions   :          332
 number of occupied orbitals :           80
 
  MOs are in ASCII format !


 reading orbital data $scfmo  from file mos . 

 orbital characterization : scfconv=6
 

         --------------------------------------------------------------
                   checking mo's by calculating trace(D*S)

              number of electrons : 
                 from trace(D*S)         :  160.000000000123
                 from occupation numbers :  160.000000000000

              molecular charge           :    0.000000000000
         --------------------------------------------------------------

 time elapsed for calculating density matrices :   0.024 sec

 number of non-frozen orbitals          :   332
 number of non-frozen occupied orbitals :    80
 Blocking parameters 
 shells:
    index      start shell   last shell  start bf    last bf    #bf 
       1             1         105             1        157    157
       2           106         143           158        310    153
       3           144         150           311        352     42
  
           ------------------
           density functional
           ------------------
 PBE0 hybrid functional
 exchange:    3/4 (LDA+PBE) + 1/4 HF
 correlation: LDA (PW) + PBE
 iterations will be done with small grid
  
 spherical integration : Lebedev's spherical grid
 spherical gridsize    :           3
    i.e. gridpoints    :         302
 value for diffuse not defined
 radial integration    : Chebyshev 2nd kind (scaling 3)
 radial gridsize       :           3
 integration cells     :          28
 partition function    : becke
 partition sharpness   :           3
  
 
 Derivatives of quadrature weights will be included
 
          Overall gridpoints after grid construction =        151403
 Ordering of quadrature gridpoints disabled.
 
 
 
 
 OCCUPIED-OCCUPIED TENSOR SPACES :

          IRREP   tensor space dimension   number of roots

           a              6400                  78
 
 OCCUPIED-VIRTUAL TENSOR SPACES :

          IRREP   tensor space dimension   number of roots

           a             20160                  78
 
 
 
 
 CONSTRUCTING integral bounds

 setting up bound for integral derivative estimation

 increment for numerical differentiation : 0.00050000
 
 machine precision:   2.220446049250313E-016

 integral neglect threshold       :  0.10E-09
 integral storage threshold THIZE :  0.10E-04
 integral storage threshold THIME :         5

 
 
 
 PREPARING NUMERICAL INTEGRATION
 
 Remaining core memory for DFT =         152 MB
 
 Memory needed per atom    =        1456 KiB
 
     i. e.          28 atoms per loop

 Calculating ground state density on molecular grid

 Integral of ground state density: N =   159.9999986094182    


 
 
 CONSTRUCTING first deriv. of <mu|x,y,z|nu> -> Dip. deriv.
  dipole integral derivatives will be neglected if
  expon. factor <0.142045E-10
      ...terminated. cpu:       0.04       wall:       0.04
 
 
 
 
 CONSTRUCTING first deriv. of  <mu|nu>
                               <mu|h|nu>    -> RHS
              second deriv. of <mu|nu>      -> Hessian
                               <mu|h|nu>    -> Hessian
                               nucl. rep.   -> Hessian
     integrals are neglected if expon. factor <  1.000000000000000E-012
      ...terminated. cpu:       2.91       wall:       2.91
 
 
 
 
 CONSTRUCTING second deriv. of 2e energy    -> Hessian
   treating Coulomb (and exchange) contribution
     integrals will be neglected if total contribution <  1.420454545454545E-008
      ...terminated. cpu:       0.03       wall:      62.08
   treating exchange-correlation contribution
      ...terminated. cpu:       0.06       wall:      42.14
 
 
 
 
 CONSTRUCTING S(i,j)xi
      ...terminated. cpu:       0.19       wall:       0.19
 
 
 
 
 CONSTRUCTING <i|x,y,z|j>*S(i,j)xi          -> Dip. deriv.
      ...terminated. cpu:       0.05       wall:       0.05
 
 
 
 
 CONSTRUCTING epsilon(i)*S(i,j)xi*S(i,j)chi -> Hessian
      ...terminated. cpu:       0.02       wall:       0.03
 
 
 
 
 CONSTRUCTING G(a,i)[S(k,l)xi]              -> RHS
              G(i,j)[S(k,l)xi]*S(i,j)chi    -> Hessian
 
         Maximum core memory set to          200 MB
         This corresponds to         209 vectors in CAO basis
      ...terminated. cpu:       2.65       wall:     175.82
 
 
 
 
 CONSTRUCTING G(mu,nu)[D(kap,lam)]xi
 
          Maximum core memory set to          200 MB
          Atoms treated simultaneously :          28
      ...terminated. cpu:       0.59       wall:      68.46
 
 
 
 
 CONSTRUCTING F(a,i)xi                      -> RHS
              F(i,j)xi*S(i,j)chi            -> Hessian
 
        Maximum core memory set to         200 MB
        This corresponds to         318 vectors in CAO basis
      ...terminated. cpu:       3.03       wall:       3.04
 
 
 
 
 CONSTRUCTING epsilon(i)*S(a,i)xi           -> RHS
      ...terminated. cpu:       0.68       wall:       0.68
 
 
 
 
 SOLVING CPHF equations
 
 Residuum convergence criterium   :  1.000000000000000E-005
 
 Maximum number of Davidson iterations set to          25
  Switching to small grid
        preparing numerical integration ....
          Overall gridpoints after grid construction =         42647

 Calculating ground state density on molecular grid

 Integral of ground state density: N =   159.9993166320614    




                       Block Davidson iteration


 total number of roots to be determined:  78


 maximum core memory set to   200 MB,
 corresponding to      209 vectors in CAO basis


 maximum number of simultaneously treated vectors (including degeneracy):  78


 Iteration IRREP Converged      Max. Euclidean
                 roots          residual norm

    1       a        0        4.919279303705775D-02
 
    2       a        0        6.954245473379425D-03
 
    3       a        0        7.559013668016416D-04
 
    4       a        1        6.026287562679908D-05
 
    5       a       78        9.404250153717500D-06
 

 converged!

  Switching to fine grid
        preparing numerical integration ....
          Overall gridpoints after grid construction =        151403

 Calculating ground state density on molecular grid

 Integral of ground state density: N =   159.9999986094150    



 Iteration IRREP Converged      Max. Euclidean
                 roots          residual norm

    6       a        0        6.060296267241826D-05
 

 NOTE: Residual norms are larger than 1.00D-05 due to mgrid option!

      ...terminated. cpu:      47.45       wall:     961.37
 
 
 
 
 CONSTRUCTING <a|x,y,z|i>*U(a,i)xi          -> Dip. deriv.
      ...terminated. cpu:       0.07       wall:       0.08
 
 
 
 
 CONSTRUCTING RHS(a,i)xi*U(a,i)chi          -> Hessian
      ...terminated. cpu:       0.08       wall:       0.08
 
 
 
 

            -----------------------
            permanent dipole moment
            -----------------------

                                   x                y                z
    electronic part       :  605.3866528812  ***************   -14.5943238212
     nuclear   part       : -605.6021094193  2280.3128579893    14.6409646872
     total                :   -0.2154565381     0.5758003723     0.0466408659

 with reference to the point :   0.0000000        0.0000000        0.0000000
 (given in atomic units)
    | dipole |       :    1.5671442977  debye


 keyword $dipgrad missing in file <control>

   ***  dipole moment & cartesian dipole gradients written onto
        $dipole, $dipgrad,  file=<control>  ***

             -----------------------------------
             rotational and vibrational analysis
             -----------------------------------


            ==============================================================
            ATOMIC WEIGHTS (average over the natural occurance of isotops)
            ==============================================================
            ('*' denotes special isotop !)
              1     c                12.01115
              2     c                12.01115
              3     c                12.01115
              4     c                12.01115
              5     c                12.01115
              6     c                12.01115
              7     h                 1.00797
              8     h                 1.00797
              9     c                12.01115
             10     c                12.01115
             11     c                12.01115
             12     c                12.01115
             13     c                12.01115
             14     c                12.01115
             15     c                12.01115
             16     h                 1.00797
             17     c                12.01115
             18     h                 1.00797
             19     c                12.01115
             20     h                 1.00797
             21     s                32.06400
             22     s                32.06400
             23     h                 1.00797
             24     s                32.06400
             25     h                 1.00797
             26     h                 1.00797
             27     n                14.00670
             28     n                14.00670

          -------------------------------------------------
          CARTESIAN FORCE CONSTANT MATRIX (hartree/bohr**2)
         (translational & rotational space projected out)
          -------------------------------------------------

   ATOM              1 c                           2 c 
                  dx        dy        dz        dx        dy        dz
   1 c     dx  0.6969165
           dy  0.0617022 0.6399593
           dz -0.1633731-0.0728482 0.2352840
   2 c     dx -0.1262473 0.0377645 0.0071908 0.7678192
           dy  0.0215871-0.2006838 0.0068073 0.0097616 0.5948668
           dz  0.0090094 0.0016353-0.0898934-0.1794451-0.0516100 0.2353256
   3 c     dx  0.0039228 0.0353983-0.0037681-0.2705232 0.0647651 0.0540826
           dy  0.0298236 0.0047454-0.0088250 0.0812933-0.1266974-0.0174810
           dz -0.0031077-0.0105578 0.0071700 0.0521243-0.0126036-0.0811729
   4 c     dx -0.0033676-0.0045721-0.0001383-0.0358673-0.0274473 0.0160872
           dy -0.0193109-0.0263979 0.0080013-0.0574211 0.0141802 0.0164240
           dz  0.0014852 0.0036652-0.0066292 0.0194748 0.0074176 0.0002969
   5 c     dx -0.0465861-0.0222627 0.0185319-0.0291732 0.0044671 0.0061680
           dy -0.0053569 0.0308208-0.0008288 0.0286183-0.0051260-0.0087250
           dz  0.0170406 0.0039715 0.0026528 0.0034969-0.0014401-0.0076535
   6 c     dx -0.1359651-0.0671081 0.0270278 0.0406463-0.0089520-0.0098088
           dy -0.0662274-0.2194073 0.0363178-0.0057984-0.0229363 0.0050402
           dz  0.0269600 0.0375862-0.0870994-0.0100815 0.0057989 0.0064584
   7 h     dx -0.0033039-0.0018406 0.0024162-0.0039688 0.0285518-0.0009770
           dy  0.0002961 0.0012806 0.0002120-0.0014306-0.0015932 0.0010669
           dz  0.0021535 0.0009602 0.0031692 0.0026036-0.0080241 0.0040169
   8 h     dx  0.0005559-0.0001836-0.0002473 0.0008499-0.0026521 0.0027440
           dy -0.0007354-0.0008391 0.0002719-0.0021374-0.0035359 0.0021066
           dz -0.0001928 0.0000979-0.0002899 0.0026586 0.0022506 0.0080003
   9 c     dx -0.0024645-0.0036767 0.0009989 0.0005822 0.0002676-0.0003651
           dy  0.0021684 0.0029749-0.0013714-0.0016651 0.0006525 0.0004242
           dz  0.0002701 0.0006183-0.0009912 0.0000133-0.0002250-0.0002034
  10 c     dx  0.0161150-0.0146139-0.0011905-0.0040316-0.0011582 0.0022104
           dy -0.0045307-0.0347086 0.0072162-0.0011669 0.0010232 0.0005665
           dz -0.0026784 0.0095095 0.0067666 0.0021877 0.0006780 0.0021867
  11 c     dx  0.0012575-0.0000377-0.0001689-0.0019606 0.0004686 0.0005180
           dy  0.0022379-0.0007362-0.0005586-0.0001189 0.0001617 0.0000221
           dz -0.0005944 0.0002094 0.0005816 0.0008521-0.0002275-0.0001941
  12 c     dx -0.0018939-0.0012155 0.0007546 0.0007784-0.0004693-0.0002325
           dy -0.0013389-0.0011307 0.0007237 0.0016840-0.0008397-0.0004113
           dz  0.0008178 0.0007502-0.0006430-0.0006124 0.0002583-0.0000076
  13 c     dx  0.0000320 0.0004234-0.0001525-0.0000498 0.0002172-0.0000849
           dy -0.0012678-0.0004439 0.0005351 0.0000471-0.0000827-0.0000409
           dz  0.0001476-0.0000367-0.0000785 0.0000211-0.0001014-0.0001982
  14 c     dx -0.0004980-0.0003133 0.0001935-0.0000045-0.0000695 0.0000077
           dy  0.0005296-0.0000103-0.0001905 0.0000863-0.0000712-0.0000115
           dz  0.0000821 0.0001107-0.0001523-0.0000026 0.0000355 0.0000019
  15 c     dx -0.0001970 0.0000008 0.0000855 0.0001871-0.0000757-0.0000460
           dy  0.0000161 0.0001098-0.0000220-0.0000404 0.0000318 0.0000077
           dz  0.0000749 0.0000099-0.0000595-0.0000866 0.0000318-0.0000001
  16 h     dx -0.0007786 0.0012264 0.0002770-0.0002672 0.0000218 0.0002166
           dy  0.0021755 0.0005434-0.0007062 0.0003239 0.0002417-0.0001124
           dz  0.0002575-0.0004336 0.0003858 0.0001089 0.0000674 0.0003045
  17 c     dx -0.0002729-0.0001063 0.0001176 0.0001459-0.0000790-0.0000179
           dy -0.0003366-0.0001136 0.0001451 0.0000058-0.0000390 0.0000042
           dz  0.0001681 0.0000452-0.0000492-0.0000510 0.0000419 0.0000383
  18 h     dx  0.0000026 0.0000080 0.0000022-0.0000064 0.0000092 0.0000021
           dy  0.0000043-0.0000196 0.0000054 0.0000090-0.0000140-0.0000006
           dz  0.0000033 0.0000021 0.0000104 0.0000014-0.0000011 0.0000029
  19 c     dx  0.0001867 0.0001541-0.0000957-0.0001417 0.0000918 0.0000285
           dy -0.0000757-0.0002511 0.0000675 0.0002681-0.0001980-0.0000538
           dz -0.0000661-0.0000212 0.0000186 0.0000086-0.0000083-0.0000134
  20 h     dx -0.0000075 0.0000085 0.0000034 0.0000043 0.0000022-0.0000006
           dy  0.0000080 0.0000072-0.0000026-0.0000147 0.0000063 0.0000034
           dz  0.0000054-0.0000020 0.0000051 0.0000003-0.0000034 0.0000012
  21 s     dx  0.0001585 0.0001145-0.0000874-0.0000265 0.0000681 0.0000116
           dy  0.0000376 0.0001521-0.0000491-0.0000947 0.0000758 0.0000228
           dz -0.0000821-0.0000729 0.0000234 0.0000096-0.0000477 0.0000093
  22 s     dx  0.0003448 0.0029579-0.0003065 0.0004486 0.0002095 0.0000766
           dy  0.0036767-0.0006753-0.0008199-0.0016158 0.0001079 0.0004866
           dz -0.0004381-0.0010805 0.0013556-0.0000310-0.0000122 0.0004811
  23 h     dx -0.0032632 0.0033296 0.0028526-0.0005986 0.0005746 0.0000178
           dy  0.0020003 0.0000552 0.0002400 0.0011767 0.0002354-0.0004126
           dz  0.0031016-0.0000139 0.0068235-0.0000170-0.0002422-0.0002919
  24 s     dx -0.0837070-0.0257980 0.0320381-0.1142208-0.0303791 0.0416238
           dy -0.0715437-0.0450066 0.0281271 0.0153422-0.0145260-0.0014949
           dz  0.0372223 0.0144951-0.0001115 0.0364226 0.0122869 0.0004110
  25 h     dx -0.0000004 0.0000130 0.0000075 0.0000023 0.0000039 0.0000016
           dy  0.0000281 0.0000190-0.0000202 0.0000044-0.0000160-0.0000044
           dz  0.0000052-0.0000033-0.0000064 0.0000116-0.0000147-0.0000026
  26 h     dx -0.0000193 0.0000061-0.0000156-0.0000089 0.0000128-0.0000015
           dy  0.0000331 0.0000224-0.0000049 0.0000016-0.0000113 0.0000019
           dz -0.0000105-0.0000111 0.0000018-0.0000089 0.0000129 0.0000038
  27 n     dx -0.3429086 0.0473057 0.0762304-0.0233439 0.0798052 0.0030365
           dy  0.0295179-0.0973240-0.0058371 0.0123433-0.0011348-0.0014647
           dz  0.0781406-0.0111800-0.0935361 0.0107029-0.0219743 0.0160717
  28 n     dx  0.0319883-0.0486845 0.0008156-0.2010239-0.1396031 0.0551371
           dy  0.0148813-0.0529421 0.0034141-0.1172262-0.2340780 0.0540108
           dz -0.0064019 0.0225947 0.0152911 0.0524469 0.0608485-0.0939797

   ATOM              3 c                           4 c 
                  dx        dy        dz        dx        dy        dz
   3 c     dx  0.6338468
           dy -0.0003428 0.7975197
           dz -0.1514716-0.0771112 0.1852385
   4 c     dx -0.2265952-0.1609573 0.0680044 0.7141901
           dy -0.1094681-0.3040206 0.0610566 0.0250000 0.6851060
           dz  0.0619417 0.0763769-0.0898147-0.1747785-0.0705922 0.2005027
   5 c     dx  0.0444762 0.0022592-0.0106190-0.1375927 0.0309742 0.0187547
           dy -0.0335734-0.0537308 0.0172698 0.0911838-0.2869912-0.0014881
           dz -0.0067236 0.0064073 0.0108326 0.0116444 0.0167796-0.0689654
   6 c     dx -0.0350440-0.0196794 0.0123733-0.0074675 0.0663954-0.0036517
           dy -0.0072015 0.0036326 0.0016509 0.0340852-0.0086025-0.0080926
           dz  0.0109181 0.0052949-0.0051372 0.0002557-0.0180734 0.0087869
   7 h     dx -0.0872419 0.0933449 0.0048978 0.0105915-0.0183630 0.0002451
           dy  0.0936679-0.3221111 0.0051490 0.0103016-0.0137932-0.0010172
           dz  0.0048392 0.0052456-0.0369197-0.0031282 0.0076243 0.0043370
   8 h     dx -0.0117403 0.0061195 0.0044192-0.3174398 0.0460414 0.0776227
           dy -0.0235751 0.0083256 0.0067372 0.0464914-0.0652939-0.0110107
           dz  0.0079850-0.0021035 0.0033109 0.0774822-0.0109739-0.0617658
   9 c     dx -0.0010317-0.0025462 0.0005898-0.0002159 0.0049290-0.0004350
           dy  0.0014652 0.0027616-0.0007546 0.0022501-0.0052921 0.0004364
           dz  0.0001551 0.0004337-0.0001222-0.0000418-0.0007622 0.0008670
  10 c     dx  0.0011681 0.0032495-0.0009271-0.0034478-0.0077283 0.0041337
           dy -0.0020561-0.0058561 0.0012127-0.0024623 0.0129781-0.0002855
           dz -0.0001376-0.0004397-0.0006303 0.0033732 0.0014082 0.0057355
  11 c     dx  0.0007661 0.0016268-0.0004064 0.0007943-0.0027668 0.0005231
           dy  0.0005075 0.0005826-0.0002069 0.0003085-0.0015407 0.0001086
           dz -0.0004469-0.0007175 0.0001774-0.0001235 0.0015024 0.0001774
  12 c     dx -0.0003936-0.0012358 0.0002859-0.0007600 0.0021552-0.0003394
           dy -0.0011919-0.0023721 0.0006131-0.0008935 0.0043774-0.0005725
           dz  0.0002555 0.0008625-0.0000931 0.0003765-0.0014415-0.0002310
  13 c     dx  0.0001320 0.0004532-0.0000793 0.0002322-0.0007355 0.0000565
           dy -0.0003756-0.0004963 0.0001735 0.0001330 0.0014365-0.0001625
           dz  0.0000089-0.0001320 0.0000374-0.0000903 0.0001214 0.0001501
  14 c     dx -0.0001240-0.0002667 0.0000710-0.0000306 0.0006217-0.0000371
           dy  0.0001941-0.0000675-0.0000504-0.0002067-0.0003225 0.0000849
           dz  0.0000035 0.0001076-0.0000003 0.0000514-0.0001767 0.0000282
  15 c     dx -0.0000964-0.0002270 0.0000664 0.0000129 0.0004051-0.0001932
           dy  0.0000396 0.0000729-0.0000228 0.0001108-0.0001114-0.0000550
           dz  0.0000485 0.0000943 0.0000060-0.0001161-0.0002414-0.0002162
  16 h     dx  0.0000473 0.0000422-0.0000403 0.0000677-0.0000565 0.0000567
           dy  0.0000262-0.0001743 0.0000045-0.0002224 0.0000979 0.0000796
           dz  0.0000126 0.0000132-0.0000558 0.0000368-0.0000495 0.0001759
  17 c     dx -0.0000353-0.0002644 0.0000377-0.0000987 0.0003780-0.0000101
           dy -0.0001296-0.0001521 0.0000540 0.0000423 0.0004341-0.0000512
           dz  0.0000262 0.0001261-0.0000352 0.0000358-0.0002217 0.0000426
  18 h     dx -0.0000026 0.0000152-0.0000019 0.0000118-0.0000147-0.0000049
           dy  0.0000016-0.0000305 0.0000027-0.0000215 0.0000297 0.0000011
           dz -0.0000002-0.0000005-0.0000002-0.0000032-0.0000026-0.0000052
  19 c     dx  0.0000060 0.0002592-0.0000330 0.0001296-0.0003552 0.0000110
           dy  0.0000923-0.0004802 0.0000255-0.0003712 0.0003836 0.0000428
           dz -0.0000211-0.0000268 0.0000096 0.0000087 0.0000800-0.0000019
  20 h     dx -0.0000031 0.0000030 0.0000012 0.0000076 0.0000021-0.0000039
           dy -0.0000021 0.0000171-0.0000013 0.0000114-0.0000175-0.0000010
           dz -0.0000003-0.0000033 0.0000015-0.0000046 0.0000033-0.0000032
  21 s     dx  0.0000491 0.0001374-0.0000310 0.0000414-0.0002901 0.0000046
           dy  0.0000059 0.0002175-0.0000249 0.0001246-0.0002575-0.0000021
           dz  0.0000082-0.0000802 0.0000074-0.0000475 0.0001448-0.0000234
  22 s     dx  0.0004380 0.0006254-0.0002560-0.0006104-0.0018017-0.0000203
           dy  0.0002493 0.0010309-0.0001985 0.0003155-0.0017210-0.0001810
           dz -0.0000197-0.0002526 0.0000039-0.0002611 0.0003716-0.0010644
  23 h     dx  0.0002593 0.0025591 0.0008864 0.0093290 0.0101216-0.0028153
           dy  0.0033871-0.0040996-0.0000702-0.0200809-0.0161482 0.0083003
           dz  0.0007600 0.0002025 0.0040735 0.0006476-0.0006331 0.0034883
  24 s     dx  0.0184426-0.0037234-0.0026248-0.0054436-0.0156035 0.0036713
           dy -0.0005688-0.0012900 0.0012583 0.0018464-0.0048739 0.0000913
           dz -0.0031228 0.0021958 0.0088605 0.0016904 0.0054276-0.0003083
  25 h     dx  0.0000039 0.0000093-0.0000040 0.0000122-0.0000094-0.0000145
           dy -0.0000304-0.0000326 0.0000160-0.0000232 0.0000580-0.0000020
           dz -0.0000088-0.0000310 0.0000052-0.0000158 0.0000441-0.0000026
  26 h     dx  0.0000137 0.0000297-0.0000055 0.0000204-0.0000482 0.0000132
           dy -0.0000330-0.0000247 0.0000151-0.0000114 0.0000566-0.0000001
           dz  0.0000078 0.0000241-0.0000076 0.0000067-0.0000412-0.0000068
  27 n     dx -0.0108591 0.0026407 0.0037038 0.0012179 0.0179275-0.0029172
           dy -0.0016878-0.0049802 0.0013633-0.0004523 0.0032737-0.0004212
           dz  0.0041634 0.0000730 0.0012268-0.0008568-0.0059049-0.0008030
  28 n     dx -0.0598813-0.0352480 0.0221462 0.0022785 0.0290220-0.0027734
           dy -0.0195639 0.0077100 0.0050000 0.0055176 0.0129723-0.0026697
           dz  0.0205044 0.0097466-0.0069722-0.0000955-0.0098750 0.0052526

   ATOM              5 c                           6 c 
                  dx        dy        dz        dx        dy        dz
   5 c     dx  0.6894572
           dy -0.0015469 0.6890819
           dz -0.1633196-0.0624989 0.1918624
   6 c     dx -0.3467212 0.0350480 0.0779954 0.6630907
           dy  0.0679715-0.1292820-0.0129560-0.0490635 0.6520468
           dz  0.0749355-0.0035652-0.0917426-0.1444036-0.0449015 0.2182771
   7 h     dx -0.0011248-0.0023297 0.0031104-0.0009015-0.0001069 0.0000585
           dy -0.0033112-0.0006358 0.0020467-0.0001426 0.0001826-0.0000685
           dz  0.0032251 0.0017344 0.0071624 0.0000798-0.0001487-0.0007424
   8 h     dx -0.0052713-0.0015167 0.0027013 0.0016380 0.0013682 0.0007711
           dy  0.0278337-0.0013650-0.0077328 0.0011244-0.0051504 0.0007984
           dz -0.0007742 0.0010603 0.0033827 0.0008526 0.0006681 0.0043329
   9 c     dx  0.0088841-0.0069598-0.0009954-0.0093646 0.0221793 0.0014309
           dy -0.0086597 0.0018271 0.0027049 0.0346638-0.0225727-0.0094385
           dz -0.0011856 0.0026388 0.0025079-0.0010972-0.0038262 0.0037330
  10 c     dx -0.0186321 0.0435604 0.0028718-0.1059911 0.0448104 0.0097230
           dy  0.0301654-0.0216135-0.0060091 0.0462889-0.2479570 0.0100761
           dz  0.0043754-0.0099326 0.0068089 0.0102382 0.0113245-0.0638690
  11 c     dx -0.0037176 0.0038938 0.0005655-0.0029927-0.0081573 0.0017028
           dy -0.0046138 0.0006002 0.0014249 0.0001388-0.0059787 0.0006687
           dz  0.0019483-0.0014950 0.0000740 0.0004612 0.0037198-0.0023008
  12 c     dx  0.0024786-0.0010527-0.0006553-0.0060953 0.0070804 0.0028382
           dy  0.0062192-0.0059423-0.0010268-0.0034690 0.0126985 0.0000568
           dz -0.0018508 0.0011420 0.0004900 0.0045278-0.0042237 0.0029461
  13 c     dx -0.0011423 0.0005362 0.0002681 0.0027767-0.0016359 0.0004774
           dy  0.0022518-0.0008183-0.0007587-0.0025272 0.0048642 0.0006984
           dz  0.0000525-0.0002035-0.0001767 0.0006653 0.0003982 0.0029530
  14 c     dx  0.0010773-0.0001666-0.0004173-0.0019268 0.0020715 0.0004779
           dy -0.0005491 0.0000376 0.0001840 0.0005381-0.0007087-0.0000322
           dz -0.0003442 0.0000289 0.0000726 0.0007274-0.0006679-0.0000029
  15 c     dx  0.0002656-0.0008063-0.0001040 0.0008379 0.0013352 0.0001102
           dy -0.0002374-0.0001435 0.0000151 0.0010660 0.0001102-0.0001765
           dz -0.0001375 0.0003058-0.0002887 0.0001584-0.0003419 0.0015745
  16 h     dx -0.0001631 0.0000771-0.0000228 0.0004846-0.0004261-0.0015251
           dy  0.0001542-0.0003380-0.0000141-0.0010981 0.0009923-0.0002370
           dz -0.0000744 0.0000881-0.0000873-0.0015154-0.0005344-0.0032027
  17 c     dx  0.0005877-0.0004252-0.0001348-0.0003019 0.0014978-0.0004153
           dy  0.0006603-0.0002792-0.0001934-0.0007444 0.0011178-0.0000286
           dz -0.0003094 0.0002497 0.0001224-0.0001079-0.0008610-0.0006671
  18 h     dx -0.0000255 0.0000157 0.0000032 0.0000200-0.0000597-0.0000078
           dy  0.0000508-0.0000309-0.0000144-0.0000906 0.0001033 0.0000164
           dz -0.0000016 0.0000026-0.0000034-0.0000017 0.0000006-0.0000217
  19 c     dx -0.0005276 0.0003824 0.0001385 0.0004081-0.0013837 0.0000455
           dy  0.0006458-0.0005943-0.0001396-0.0004222 0.0020535-0.0001024
           dz  0.0001074-0.0000563-0.0000214-0.0000858 0.0002229 0.0000204
  20 h     dx -0.0000054-0.0000068-0.0000005 0.0000407 0.0000108-0.0000091
           dy -0.0000262 0.0000203 0.0000058 0.0000135-0.0000866 0.0000082
           dz  0.0000027-0.0000030-0.0000061-0.0000103 0.0000055 0.0000206
  21 s     dx -0.0004522 0.0001867 0.0001334 0.0006486-0.0009489-0.0000717
           dy -0.0004088 0.0002500 0.0001105 0.0006284-0.0010709-0.0000717
           dz  0.0002423-0.0001109-0.0000697-0.0003363 0.0005507 0.0001035
  22 s     dx  0.0000977 0.0043630-0.0003626 0.0090101-0.0047054-0.0029681
           dy -0.0034073-0.0006422 0.0012461-0.0151255-0.0272492 0.0099391
           dz  0.0007833-0.0009891-0.0002316-0.0012774 0.0056421-0.0009710
  23 h     dx -0.1757088-0.1318885 0.0552331-0.0128412-0.0218096 0.0077672
           dy -0.1312654-0.2018633 0.0567814 0.0062483 0.0082461-0.0022290
           dz  0.0547705 0.0567907-0.0600828 0.0048527 0.0059491 0.0029788
  24 s     dx -0.0103970 0.0108082 0.0020646 0.0086911 0.0154253-0.0018847
           dy -0.0059768 0.0014666 0.0017123 0.0087165 0.0093324-0.0026963
           dz  0.0040335-0.0033926-0.0002395-0.0011864-0.0046178 0.0091997
  25 h     dx -0.0000592 0.0000192 0.0000486 0.0000501 0.0000216-0.0000194
           dy  0.0001092-0.0000736-0.0000490-0.0000847 0.0000354 0.0000127
           dz  0.0000552-0.0000651-0.0000175-0.0000475 0.0001631 0.0000307
  26 h     dx -0.0000991 0.0000560-0.0000156 0.0000917-0.0000921 0.0000081
           dy  0.0000991-0.0000497 0.0000276-0.0000669-0.0000028 0.0000339
           dz -0.0000284 0.0000602 0.0000097 0.0000374-0.0001263 0.0000328
  27 n     dx  0.0174878-0.0179495-0.0020725-0.0520250-0.0231927 0.0180860
           dy  0.0015387-0.0071738 0.0008058-0.0314519 0.0038263 0.0090645
           dz -0.0042971 0.0066996 0.0041159 0.0193781 0.0062963-0.0067110
  28 n     dx  0.0125868-0.0151696-0.0024918-0.0107967-0.0070480 0.0048203
           dy  0.0068649-0.0074113-0.0013907-0.0008439-0.0082370 0.0015676
           dz -0.0050444 0.0052833-0.0005081 0.0041546 0.0033481 0.0010195

   ATOM              7 h                           8 h 
                  dx        dy        dz        dx        dy        dz
   7 h     dx  0.0839241
           dy -0.0995166 0.3360443
           dz -0.0064676-0.0062625 0.0266279
   8 h     dx  0.0004010-0.0000943-0.0017493 0.3319157
           dy  0.0002616 0.0007958-0.0008141-0.0491943 0.0655020
           dz -0.0018057-0.0006965-0.0048956-0.0855692 0.0101795 0.0508790
   9 c     dx -0.0000781 0.0000865 0.0000349 0.0000850-0.0000025-0.0000718
           dy  0.0000854-0.0001111-0.0000628-0.0000127-0.0004211-0.0000059
           dz  0.0000009-0.0000177-0.0000738-0.0001007 0.0000490-0.0001805
  10 c     dx  0.0001667-0.0000991-0.0003770-0.0004535 0.0011751 0.0000127
           dy -0.0001758 0.0001215-0.0000267-0.0000300 0.0004988 0.0000108
           dz -0.0003456-0.0000991-0.0009074 0.0001992-0.0004133 0.0001261
  11 c     dx  0.0000765-0.0000951-0.0000744-0.0000698-0.0000317 0.0000063
           dy  0.0000621 0.0000552-0.0000265 0.0000252-0.0001121-0.0000084
           dz -0.0000504 0.0000315-0.0000338 0.0000183 0.0000241-0.0000151
  12 c     dx -0.0000275 0.0000787 0.0000337 0.0000492 0.0000911-0.0000167
           dy -0.0001213 0.0000651 0.0000718 0.0001089 0.0000172-0.0000111
           dz  0.0000449-0.0000386 0.0000266-0.0000368-0.0000501-0.0000066
  13 c     dx  0.0000299 0.0000039-0.0000127-0.0000367 0.0000133 0.0000076
           dy -0.0000144 0.0000243-0.0000065-0.0000054 0.0000454 0.0000067
           dz -0.0000171-0.0000046-0.0000121 0.0000185-0.0000110 0.0000023
  14 c     dx -0.0000130 0.0000089-0.0000056 0.0000027 0.0000223 0.0000032
           dy -0.0000112 0.0000003 0.0000029 0.0000279-0.0000357-0.0000065
           dz  0.0000040-0.0000045-0.0000091-0.0000026-0.0000033 0.0000049
  15 c     dx -0.0000008 0.0000172 0.0000166 0.0000280-0.0000247 0.0000055
           dy  0.0000051 0.0000003 0.0000008 0.0000046-0.0000254 0.0000030
           dz  0.0000117-0.0000042 0.0000312-0.0000027 0.0000140 0.0000206
  16 h     dx -0.0000008-0.0000021-0.0000169 0.0000146-0.0000111 0.0000057
           dy -0.0000762 0.0000233 0.0000112-0.0000213-0.0000131 0.0000081
           dz -0.0000094-0.0000047-0.0000359-0.0000005 0.0000081 0.0000148
  17 c     dx -0.0000135 0.0000086 0.0000033 0.0000253-0.0000127-0.0000060
           dy -0.0000052 0.0000031 0.0000004 0.0000020 0.0000082 0.0000007
           dz  0.0000070-0.0000033-0.0000035-0.0000116 0.0000041-0.0000041
  18 h     dx  0.0000014 0.0000003 0.0000003-0.0000021 0.0000008 0.0000010
           dy -0.0000019 0.0000004 0.0000008 0.0000030-0.0000018-0.0000004
           dz  0.0000006 0.0000001 0.0000020 0.0000008 0.0000001 0.0000011
  19 c     dx  0.0000154-0.0000083-0.0000054-0.0000256 0.0000145 0.0000019
           dy -0.0000334 0.0000083 0.0000094 0.0000627-0.0000414-0.0000139
           dz -0.0000016 0.0000019-0.0000038-0.0000012-0.0000001-0.0000033
  20 h     dx  0.0000007 0.0000008 0.0000002-0.0000006 0.0000006 0.0000011
           dy  0.0000011-0.0000010-0.0000001-0.0000014 0.0000004 0.0000007
           dz  0.0000000-0.0000001 0.0000013 0.0000013-0.0000002 0.0000020
  21 s     dx  0.0000094-0.0000023 0.0000021-0.0000068-0.0000009 0.0000000
           dy  0.0000137-0.0000057-0.0000027-0.0000185 0.0000062 0.0000036
           dz -0.0000044 0.0000025 0.0000061 0.0000036 0.0000000-0.0000008
  22 s     dx  0.0000032-0.0000579 0.0000713-0.0000189 0.0000188 0.0000169
           dy  0.0001372-0.0000174 0.0000065-0.0000302 0.0000423 0.0000314
           dz  0.0000247 0.0000243 0.0001568 0.0000190-0.0000138 0.0000238
  23 h     dx  0.0003139 0.0004286-0.0001179 0.0004857-0.0001632-0.0009261
           dy -0.0008709-0.0007479 0.0003432-0.0001460 0.0009235-0.0003554
           dz  0.0000475-0.0000222 0.0001286-0.0009585-0.0003672-0.0024298
  24 s     dx -0.0002952 0.0003796-0.0000861-0.0002514-0.0006016-0.0002604
           dy  0.0005992 0.0000298-0.0002339-0.0002362-0.0000783-0.0000692
           dz -0.0001137-0.0001705-0.0004003-0.0002820 0.0000389-0.0012148
  25 h     dx  0.0000018 0.0000029 0.0000012-0.0000011-0.0000002 0.0000011
           dy -0.0000037-0.0000025 0.0000017 0.0000000 0.0000023 0.0000011
           dz -0.0000021 0.0000007 0.0000007 0.0000021-0.0000007-0.0000001
  26 h     dx  0.0000018 0.0000012-0.0000027-0.0000020 0.0000003 0.0000009
           dy -0.0000023-0.0000020 0.0000032-0.0000013 0.0000015-0.0000005
           dz  0.0000024-0.0000011 0.0000004-0.0000001 0.0000001 0.0000006
  27 n     dx -0.0013844-0.0002413 0.0006289-0.0000060 0.0002657-0.0000114
           dy  0.0012049-0.0000212-0.0002986 0.0001732 0.0002819-0.0000780
           dz  0.0004999 0.0001617 0.0005867 0.0000003-0.0001045 0.0000622
  28 n     dx  0.0028168-0.0002816-0.0016498-0.0007252-0.0008227 0.0005921
           dy -0.0007939 0.0004073-0.0001094 0.0002073 0.0004624 0.0000008
           dz -0.0015772-0.0002818-0.0022164 0.0004411 0.0002899 0.0006421

   ATOM              9 c                          10 c 
                  dx        dy        dz        dx        dy        dz
   9 c     dx  0.6712213
           dy  0.0496098 0.6793495
           dz -0.2158360-0.1007616 0.2294595
  10 c     dx -0.3142262 0.0693708 0.0867940 0.5426007
           dy  0.0902265-0.1188357-0.0274433-0.1482481 0.5951164
           dz  0.0828400-0.0180257-0.0925164-0.1389330-0.0146823 0.1731897
  11 c     dx  0.0124329-0.0589048 0.0081256-0.0169243 0.0136215 0.0075034
           dy -0.0132933-0.0404429 0.0129490-0.0005914-0.0377604 0.0068807
           dz  0.0011681 0.0305809 0.0051045 0.0095714 0.0015421 0.0033704
  12 c     dx -0.1072988 0.0279806 0.0147068 0.0038050 0.0176102-0.0004817
           dy -0.0085486-0.3253821 0.0428349 0.0665699-0.0468969-0.0175108
           dz  0.0203631 0.0291196-0.0707020-0.0079635 0.0018761 0.0123250
  13 c     dx -0.0015124-0.0056798 0.0020921-0.0062829 0.0044444 0.0016317
           dy -0.0053362 0.0077814 0.0010535 0.0026491-0.0065083-0.0001048
           dz  0.0020144 0.0012819 0.0005806 0.0018554-0.0007905-0.0010142
  14 c     dx -0.0052738 0.0023211 0.0011701 0.0002325-0.0025655 0.0006178
           dy  0.0035335-0.0017912-0.0012668-0.0001361-0.0013330 0.0003261
           dz  0.0010177-0.0008203-0.0015351 0.0002316 0.0013172 0.0004861
  15 c     dx  0.0047137 0.0045623-0.0034937 0.0033050-0.0049879 0.0003026
           dy  0.0189112-0.0094518-0.0062417-0.0030711-0.0028490 0.0019642
           dz -0.0055492-0.0007681-0.0001070-0.0000015 0.0027067 0.0019112
  16 h     dx -0.2141049-0.1257923 0.0870597-0.0119321-0.0153744 0.0085381
           dy -0.1299794-0.1551021 0.0682559 0.0089842 0.0098065-0.0043559
           dz  0.0871088 0.0663884-0.0795616 0.0050670 0.0052268 0.0017540
  17 c     dx  0.0018117 0.0010964 0.0004311-0.0005585-0.0022898 0.0005208
           dy -0.0004511 0.0021198 0.0003525 0.0007278-0.0019524 0.0000127
           dz  0.0006597-0.0002406 0.0031835 0.0001236 0.0011700-0.0002622
  18 h     dx -0.0000100-0.0000014-0.0000026-0.0000285 0.0000536-0.0000201
           dy -0.0001072 0.0001008 0.0000224 0.0001392-0.0002523-0.0000282
           dz  0.0000135-0.0000188-0.0000213-0.0000345 0.0000108-0.0000494
  19 c     dx -0.0008545-0.0008210 0.0004924 0.0003786 0.0025152-0.0004638
           dy  0.0008289 0.0001983-0.0003569-0.0006027-0.0032813 0.0006916
           dz  0.0002162 0.0002961-0.0000997-0.0000111-0.0004540 0.0001711
  20 h     dx  0.0001919 0.0000263-0.0004193-0.0000506-0.0000623 0.0000421
           dy -0.0001170-0.0000890-0.0000778 0.0000347 0.0001579-0.0000290
           dz -0.0003899-0.0001307-0.0006981 0.0000230 0.0000077 0.0000254
  21 s     dx  0.0016744-0.0011932-0.0000797-0.0006741 0.0015588-0.0000798
           dy -0.0005061-0.0010686 0.0005200-0.0006686 0.0017255-0.0000274
           dz -0.0002050 0.0007762 0.0009044 0.0002568-0.0009207-0.0002194
  22 s     dx -0.0492775 0.0088577 0.0212854-0.0824108-0.0269352 0.0223207
           dy -0.0203318-0.0123639 0.0111938-0.0653645-0.0946150 0.0347053
           dz  0.0256262-0.0004854-0.0015102 0.0280180 0.0200224-0.0495328
  23 h     dx  0.0004141-0.0002301-0.0001444-0.0002689-0.0019440-0.0009762
           dy -0.0004773 0.0004110 0.0001460 0.0005642 0.0001824-0.0007604
           dz  0.0000645-0.0001982-0.0002167-0.0014109 0.0001754-0.0041027
  24 s     dx -0.0016726 0.0021380 0.0004536 0.0013835-0.0024035-0.0003480
           dy -0.0008740 0.0006345 0.0002823-0.0004325-0.0016877 0.0002566
           dz  0.0007175-0.0007765 0.0000438-0.0003972 0.0008053-0.0003262
  25 h     dx  0.0007607-0.0007969-0.0005879-0.0005849-0.0001975 0.0000451
           dy -0.0002410 0.0011235 0.0008762 0.0010758 0.0004690-0.0001698
           dz -0.0000209 0.0008395 0.0005025 0.0005346-0.0002169-0.0001496
  26 h     dx  0.0011543-0.0010562 0.0005348-0.0007594 0.0000003 0.0004956
           dy -0.0008395 0.0007554-0.0005802 0.0007540 0.0004568-0.0006658
           dz -0.0001529-0.0002605 0.0005097-0.0002997 0.0001493 0.0000511
  27 n     dx  0.0038099-0.0023139-0.0006986-0.0011543 0.0084453-0.0011414
           dy  0.0029710-0.0070789-0.0004353 0.0003780 0.0036381-0.0009930
           dz -0.0008175 0.0013347 0.0012292-0.0003229-0.0032084-0.0016173
  28 n     dx -0.0003511 0.0005311 0.0001024-0.0007434 0.0005001 0.0003739
           dy  0.0007444-0.0006874-0.0002316-0.0013287-0.0000671 0.0004805
           dz -0.0000255-0.0000629-0.0000863 0.0004418-0.0000548 0.0002889

   ATOM             11 c                          12 c 
                  dx        dy        dz        dx        dy        dz
  11 c     dx  0.5304852
           dy -0.0362096 0.6575846
           dz -0.1586700-0.0696544 0.1832276
  12 c     dx -0.2836642-0.0887683 0.0950351 0.5877650
           dy -0.0619018-0.1114594 0.0298501-0.0355954 0.7356175
           dz  0.0908551 0.0403274-0.1164860-0.1622036-0.0735200 0.2318928
  13 c     dx -0.0777947 0.0234504 0.0099374 0.0093917-0.0159442 0.0034582
           dy  0.0287178-0.2848698 0.0261462-0.0336540-0.0467466 0.0220763
           dz  0.0092003 0.0281587-0.0512486 0.0061024 0.0152683 0.0072425
  14 c     dx -0.0048563 0.0458028-0.0007798-0.0020771 0.0089747 0.0011116
           dy  0.0272828-0.0355903-0.0034780 0.0014915-0.0487884 0.0075840
           dz  0.0020360-0.0106885 0.0121077 0.0022841 0.0046778 0.0026493
  15 c     dx -0.0299950 0.0060416 0.0134844-0.1407607 0.0524808 0.0189028
           dy  0.0035082 0.0025631-0.0007224 0.0774214-0.1503325-0.0181359
           dz  0.0138179-0.0016473 0.0017856 0.0150042-0.0082974-0.0759842
  16 h     dx  0.0004351 0.0026352 0.0009865 0.0086713 0.0041880-0.0030131
           dy  0.0011304-0.0044994 0.0008025-0.0195499-0.0062219 0.0088398
           dz  0.0013273 0.0003151 0.0035652 0.0006850-0.0003519 0.0022617
  17 c     dx -0.0033772 0.0028188 0.0013170-0.0037287-0.0042839 0.0017428
           dy  0.0033958 0.0063817-0.0021225-0.0013152-0.0025401 0.0007582
           dz  0.0012374-0.0019137 0.0009542 0.0012682 0.0019085-0.0017418
  18 h     dx  0.0001150 0.0000704 0.0001053 0.0000179 0.0001015-0.0000512
           dy  0.0011625 0.0000985-0.0004074 0.0000888-0.0002076-0.0000113
           dz -0.0000684 0.0000262 0.0004366-0.0000484-0.0000188-0.0000510
  19 c     dx -0.0044933-0.0010308 0.0018263-0.0009443 0.0008655 0.0004605
           dy -0.0031483-0.0024057 0.0015325 0.0004169-0.0034582 0.0004965
           dz  0.0021361 0.0007343-0.0012399 0.0005520 0.0003042 0.0003615
  20 h     dx  0.0016514 0.0003782 0.0007282-0.0006050 0.0000509 0.0002219
           dy -0.0000426 0.0003907 0.0005368 0.0000345-0.0001805 0.0000122
           dz  0.0007937 0.0003595 0.0033103 0.0002314 0.0000140-0.0001047
  21 s     dx  0.0025306-0.0043309-0.0023043 0.0017747 0.0047916-0.0008513
           dy -0.0167467-0.0099804 0.0073533 0.0015788 0.0003119-0.0004492
           dz -0.0003380 0.0024586-0.0053137-0.0003706-0.0017218 0.0018693
  22 s     dx -0.1191336 0.0618335 0.0256097-0.0451232-0.0106789 0.0227351
           dy  0.1011393-0.1277296-0.0248728 0.0214521-0.0036852-0.0064854
           dz  0.0197475-0.0093472-0.0369149 0.0180582 0.0059289 0.0011489
  23 h     dx -0.0004564 0.0006758 0.0000060 0.0004055-0.0000108-0.0001805
           dy  0.0007328-0.0000452-0.0004224-0.0001023-0.0004271 0.0000939
           dz -0.0004080-0.0002673-0.0006691-0.0000520 0.0001913-0.0000867
  24 s     dx  0.0007027 0.0007205-0.0003889-0.0002193-0.0012384 0.0002968
           dy -0.0000922 0.0006716-0.0000643 0.0004379-0.0003766-0.0000856
           dz -0.0002264-0.0003188 0.0000783-0.0000347 0.0004081-0.0001422
  25 h     dx -0.0011936 0.0010691 0.0003308-0.0068659 0.0009435 0.0184331
           dy  0.0013753-0.0023842 0.0011384 0.0061803-0.0012679-0.0234638
           dz -0.0006765-0.0002620-0.0000876 0.0008600-0.0010273-0.0000755
  26 h     dx -0.0006749 0.0011610-0.0000701-0.0155148-0.0021012-0.0075431
           dy  0.0007291-0.0026830-0.0011973 0.0210255 0.0046467 0.0131269
           dz  0.0009562 0.0001275-0.0003118 0.0057245 0.0017382 0.0026065
  27 n     dx -0.0001216-0.0009246 0.0001221 0.0003157 0.0004500-0.0001395
           dy -0.0003898-0.0004928 0.0002504-0.0015239 0.0003744 0.0004197
           dz  0.0000086 0.0002866-0.0001804 0.0000294-0.0001573 0.0004250
  28 n     dx  0.0001786-0.0000556-0.0000798 0.0005191-0.0001105-0.0001575
           dy -0.0002602-0.0003794 0.0001612-0.0006414 0.0001471 0.0001617
           dz -0.0000238 0.0000517 0.0000448-0.0000189 0.0000372 0.0001100

   ATOM             13 c                          14 c 
                  dx        dy        dz        dx        dy        dz
  13 c     dx  0.5303327
           dy -0.0345476 0.6575970
           dz -0.1588646-0.0714442 0.1837480
  14 c     dx -0.3156840 0.0605498 0.0847051 0.5895793
           dy  0.0399739-0.0948778-0.0125751-0.0345405 0.7246024
           dz  0.0878217-0.0205543-0.1063442-0.1628382-0.0743719 0.2340808
  15 c     dx -0.0264493-0.0096318 0.0144474-0.1126711-0.0410311 0.0226515
           dy -0.0079533 0.0010965 0.0040015-0.0648029-0.1685769 0.0403128
           dz  0.0141797 0.0046614 0.0004968 0.0262288 0.0308770-0.0859426
  16 h     dx  0.0004742-0.0000145-0.0000796-0.0000062-0.0000144-0.0000147
           dy -0.0008411-0.0002310 0.0004037-0.0002008-0.0001162 0.0000864
           dz  0.0000676 0.0000727 0.0002485 0.0000011 0.0000215-0.0000492
  17 c     dx -0.0059077 0.0205649 0.0031054-0.1125173 0.0602800 0.0115677
           dy  0.0643680-0.0262337-0.0194601 0.0254453-0.3060903 0.0286854
           dz -0.0037895-0.0023434 0.0120104 0.0170555 0.0152236-0.0675706
  18 h     dx  0.0007548-0.0006966 0.0012878 0.0022279-0.0022110-0.0000494
           dy  0.0009075-0.0053839 0.0010765 0.0237150-0.0028665-0.0086277
           dz  0.0010499 0.0017027 0.0030859-0.0041255 0.0015166 0.0025715
  19 c     dx -0.0194604 0.0079999 0.0099669 0.0208208-0.0571280 0.0047351
           dy  0.0002555-0.0498852 0.0091904-0.0088497-0.0505386 0.0129268
           dz  0.0112228 0.0061518 0.0039619-0.0028913 0.0318140 0.0060101
  20 h     dx -0.0051724 0.0033635 0.0011804-0.0031476-0.0020881 0.0033511
           dy  0.0015152-0.0001796-0.0007040-0.0017370 0.0000073 0.0013899
           dz  0.0014390-0.0014170-0.0011698 0.0033243 0.0015150 0.0030563
  21 s     dx -0.0814042-0.0432209 0.0256827-0.0424818 0.0095833 0.0184457
           dy -0.0863624-0.1443104 0.0511183-0.0251636-0.0107108 0.0129069
           dz  0.0324923 0.0343115-0.0510750 0.0238952-0.0007017-0.0007373
  22 s     dx -0.0025455 0.0058056-0.0015947 0.0029739-0.0036622-0.0001067
           dy  0.0182758-0.0066432-0.0067286-0.0008797-0.0012160 0.0007282
           dz -0.0034673-0.0017689-0.0023758-0.0004711 0.0018362 0.0011685
  23 h     dx  0.0002072 0.0001565-0.0001172 0.0000101-0.0000642-0.0000025
           dy -0.0000960-0.0000218 0.0000276 0.0000031 0.0000465-0.0000086
           dz -0.0000598-0.0000661-0.0000534-0.0000233 0.0000059-0.0000119
  24 s     dx  0.0004521-0.0005271-0.0000921-0.0003487-0.0000123 0.0001234
           dy  0.0002218-0.0004099-0.0000115-0.0002401 0.0000332 0.0000975
           dz -0.0001589 0.0001932 0.0000583 0.0001216 0.0000088-0.0000621
  25 h     dx -0.0006790-0.0005877 0.0006899-0.0053863 0.0007602 0.0125695
           dy -0.0011130-0.0027217-0.0005157-0.0074542 0.0027497 0.0263574
           dz -0.0006370 0.0006807-0.0000756 0.0021450 0.0005485-0.0055894
  26 h     dx -0.0003129-0.0007220-0.0002794-0.0103768-0.0023550-0.0042072
           dy  0.0000245-0.0024000 0.0016351-0.0225551-0.0036776-0.0137521
           dz  0.0009855 0.0005301-0.0007557 0.0106213 0.0010292 0.0056745
  27 n     dx -0.0002690 0.0008068-0.0000288 0.0004213-0.0002993-0.0001057
           dy -0.0003027 0.0002301 0.0001017 0.0001934 0.0000687-0.0000834
           dz  0.0001163-0.0002744 0.0000435-0.0001340 0.0000916 0.0000717
  28 n     dx -0.0001121 0.0000830 0.0000114 0.0000780 0.0000282-0.0000295
           dy  0.0001278 0.0001885-0.0000646 0.0000757-0.0001563-0.0000097
           dz  0.0000025-0.0000519-0.0000412-0.0000274 0.0000148 0.0000232

   ATOM             15 c                          16 h 
                  dx        dy        dz        dx        dy        dz
  15 c     dx  0.5844412
           dy  0.0175965 0.4256058
           dz -0.0134985 0.0131020 0.5604691
  16 h     dx -0.0002815-0.0006422-0.0005234 0.2193179
           dy  0.0001790 0.0012542-0.0005082 0.1362297 0.1578651
           dz -0.0006409-0.0002309-0.0016225-0.0945178-0.0724604 0.0723796
  17 c     dx  0.0095062-0.0152799-0.0023110-0.0000220 0.0000846-0.0000072
           dy -0.0005266-0.0117059 0.0016556-0.0000439 0.0000407 0.0000060
           dz -0.0046201 0.0073526-0.0019154 0.0000074-0.0000404-0.0000145
  18 h     dx -0.0002602 0.0000686-0.0005700 0.0000025-0.0000045 0.0000001
           dy -0.0006391 0.0012914-0.0002137 0.0000090-0.0000171-0.0000007
           dz -0.0004538-0.0004855-0.0014351-0.0000021 0.0000051 0.0000017
  19 c     dx  0.0013784 0.0039685-0.0004734 0.0000063-0.0000183-0.0000195
           dy  0.0054628-0.0021007-0.0015222 0.0000656-0.0001306-0.0000082
           dz -0.0007175-0.0009535 0.0021996-0.0000350 0.0000184-0.0000508
  20 h     dx  0.0012339-0.0005083 0.0001611-0.0000137 0.0000358 0.0000005
           dy  0.0002105 0.0001701 0.0001202 0.0000040-0.0000055 0.0000002
           dz  0.0000387 0.0003989 0.0013491 0.0000065-0.0000126 0.0000018
  21 s     dx -0.0051375 0.0000403 0.0043683-0.0000085 0.0001661-0.0000378
           dy -0.0017153 0.0008947 0.0014709 0.0001582-0.0000943-0.0000518
           dz  0.0046187 0.0007624 0.0041193-0.0000352-0.0000601-0.0000351
  22 s     dx -0.0051363-0.0005169 0.0044132-0.0017125 0.0046114 0.0023419
           dy  0.0011924 0.0009427 0.0003364 0.0006819 0.0015747 0.0004619
           dz  0.0041811 0.0009788 0.0042637 0.0027742-0.0012248 0.0048128
  23 h     dx  0.0001681 0.0000516-0.0000356 0.0000901-0.0001602-0.0000104
           dy  0.0000070 0.0000103 0.0000194-0.0000139 0.0000302 0.0000170
           dz  0.0000535 0.0000050 0.0002095 0.0000049 0.0000344 0.0000481
  24 s     dx -0.0000878 0.0000007 0.0000454 0.0005807-0.0015093-0.0001878
           dy  0.0000640-0.0000021-0.0000275-0.0000543-0.0024758 0.0001041
           dz  0.0000577 0.0000306 0.0000065-0.0002341 0.0007719 0.0000337
  25 h     dx -0.0545509 0.0057257 0.0690418 0.0001559 0.0001590 0.0002576
           dy  0.0054523-0.0419871-0.0192329-0.0001516-0.0003082-0.0002321
           dz  0.0666983-0.0195518-0.2960934 0.0000266-0.0001409-0.0001653
  26 h     dx -0.2305497-0.0354857-0.1242183-0.0001512 0.0001467-0.0003701
           dy -0.0352288-0.0469352-0.0226139 0.0000311-0.0002013 0.0003183
           dz -0.1219313-0.0223379-0.1147660-0.0000710 0.0000796 0.0000365
  27 n     dx  0.0000426-0.0000017-0.0000150-0.0012414 0.0002193 0.0002009
           dy -0.0000492 0.0000447 0.0000040-0.0020384-0.0037860 0.0009651
           dz -0.0000118 0.0000065 0.0000161 0.0001462 0.0003616-0.0011704
  28 n     dx  0.0000535 0.0000046-0.0000151 0.0003354-0.0009442-0.0000821
           dy -0.0000639 0.0000230 0.0000091-0.0007347 0.0012449 0.0002842
           dz -0.0000100-0.0000058-0.0000284 0.0000252 0.0001103 0.0000264

   ATOM             17 c                          18 h 
                  dx        dy        dz        dx        dy        dz
  17 c     dx  0.7224117
           dy -0.0745878 0.6328807
           dz -0.2220592-0.0504111 0.2194230
  18 h     dx -0.2662412 0.1179776 0.0726914 0.2758827
           dy  0.1185848-0.1188436-0.0328839-0.1271232 0.1165508
           dz  0.0725709-0.0326562-0.0561831-0.0787439 0.0350833 0.0487382
  19 c     dx -0.2959311-0.0995716 0.1090438-0.0118262-0.0131015 0.0082467
           dy -0.1338533-0.1653459 0.0693253 0.0124754 0.0097301-0.0057823
           dz  0.1144302 0.0558799-0.1107284 0.0042145 0.0042235 0.0016299
  20 h     dx  0.0063583-0.0209187 0.0017341 0.0002241 0.0005167-0.0018274
           dy  0.0041559-0.0037282-0.0006711-0.0004056 0.0002331-0.0005390
           dz -0.0021738 0.0091861 0.0018491-0.0016804-0.0009051-0.0034408
  21 s     dx -0.0541964-0.0168240 0.0275520-0.0009905-0.0037299 0.0034652
           dy  0.0196348-0.0080412-0.0049532-0.0004804 0.0003148 0.0011331
           dz  0.0218288 0.0093089-0.0005466 0.0029554 0.0024113 0.0048459
  22 s     dx  0.0010069 0.0009735-0.0002314 0.0000870-0.0001319-0.0000045
           dy  0.0010537-0.0002105-0.0002772-0.0000947-0.0002005 0.0000684
           dz -0.0002324-0.0002044 0.0008799-0.0000159 0.0000896 0.0000082
  23 h     dx  0.0000152 0.0000112-0.0000029 0.0000043-0.0000092 0.0000021
           dy -0.0000016-0.0000063 0.0000038-0.0000010 0.0000032 0.0000007
           dz  0.0000080-0.0000020 0.0000152 0.0000015 0.0000026 0.0000062
  24 s     dx -0.0002065-0.0001566 0.0000958 0.0000121-0.0000222-0.0000013
           dy  0.0000211-0.0000908 0.0000061-0.0000059-0.0000106 0.0000038
           dz  0.0000516 0.0000450-0.0000305-0.0000004 0.0000090 0.0000021
  25 h     dx  0.0005959 0.0006325-0.0005208 0.0001288-0.0000309 0.0002061
           dy  0.0002427 0.0009499-0.0011439 0.0002716-0.0002200 0.0002853
           dz  0.0001475-0.0008869 0.0008492-0.0000702 0.0001711-0.0002351
  26 h     dx  0.0007006 0.0011061 0.0001178-0.0000895-0.0001950-0.0002432
           dy  0.0008325 0.0013613 0.0004959 0.0000142-0.0003551-0.0003286
           dz -0.0004358 0.0000182 0.0003545-0.0000442-0.0000179 0.0001136
  27 n     dx  0.0001432 0.0002217-0.0000843-0.0000015 0.0000023-0.0000024
           dy  0.0000174 0.0000532-0.0000167 0.0000018 0.0000131-0.0000034
           dz -0.0000594-0.0000789 0.0000196-0.0000014-0.0000032-0.0000067
  28 n     dx  0.0001005 0.0000417-0.0000357-0.0000087 0.0000099 0.0000016
           dy -0.0000879 0.0000222 0.0000283 0.0000149-0.0000152-0.0000048
           dz -0.0000176-0.0000173 0.0000103-0.0000005-0.0000014-0.0000032

   ATOM             19 c                          20 h 
                  dx        dy        dz        dx        dy        dz
  19 c     dx  0.4789886
           dy  0.1013217 0.7147478
           dz -0.1693746-0.1378737 0.1747187
  20 h     dx -0.0494448-0.0260905 0.0149489 0.0461769
           dy -0.0281953-0.3506414 0.0624369 0.0274468 0.3614178
           dz  0.0152589 0.0615732-0.0372609-0.0151778-0.0643309 0.0343465
  21 s     dx -0.1176329 0.0527699 0.0248162 0.0023711-0.0028490-0.0016430
           dy  0.0863537-0.0994653-0.0233935 0.0179102-0.0073848-0.0063097
           dz  0.0195413-0.0102497-0.0392441-0.0048932 0.0018029-0.0013435
  22 s     dx -0.0001053-0.0009384 0.0000837 0.0001764-0.0000190-0.0000410
           dy  0.0000261 0.0010176-0.0002109-0.0001529-0.0000157 0.0000716
           dz -0.0000970 0.0002090-0.0002626-0.0000240 0.0000175 0.0000606
  23 h     dx -0.0000092-0.0000699 0.0000107 0.0000064-0.0000031-0.0000030
           dy -0.0000055 0.0000277-0.0000041-0.0000011 0.0000005 0.0000002
           dz -0.0000051 0.0000186-0.0000170-0.0000028-0.0000001-0.0000028
  24 s     dx  0.0002226-0.0003394-0.0000396-0.0000008 0.0000172-0.0000022
           dy  0.0000220 0.0001091-0.0000188-0.0000033 0.0000033 0.0000011
           dz -0.0000667 0.0000986 0.0000063-0.0000009-0.0000063-0.0000013
  25 h     dx -0.0003832 0.0000045 0.0000043 0.0000165-0.0000126 0.0000191
           dy -0.0011952 0.0003930 0.0001236 0.0000399-0.0000427 0.0000149
           dz  0.0008026 0.0001903-0.0001670 0.0000027 0.0000101-0.0000143
  26 h     dx -0.0005616-0.0001104 0.0004370-0.0000082-0.0000177-0.0000169
           dy -0.0011268 0.0004118 0.0006799 0.0000208-0.0000478-0.0000248
           dz -0.0000355-0.0002531 0.0000075-0.0000149 0.0000159 0.0000166
  27 n     dx -0.0001264 0.0000451 0.0000458 0.0000024-0.0000061-0.0000035
           dy -0.0000868 0.0000301 0.0000279 0.0000060-0.0000120-0.0000026
           dz  0.0000538-0.0000254-0.0000012-0.0000030 0.0000017-0.0000038
  28 n     dx -0.0000732 0.0001899 0.0000018-0.0000030-0.0000034 0.0000025
           dy  0.0000533-0.0002930 0.0000260 0.0000090 0.0000002-0.0000057
           dz  0.0000160-0.0000165 0.0000003 0.0000003 0.0000009 0.0000017

   ATOM             21 s                          22 s 
                  dx        dy        dz        dx        dy        dz
  21 s     dx  0.2942106
           dy  0.0058930 0.2807959
           dz -0.0995282-0.0396260 0.0874542
  22 s     dx  0.0002101 0.0005557-0.0001640 0.2935893
           dy -0.0006530 0.0002223 0.0002288-0.0437311 0.2768823
           dz -0.0000062-0.0002823 0.0000658-0.0932955-0.0196726 0.0777037
  23 h     dx  0.0000139 0.0000150 0.0000014-0.0007246 0.0018703 0.0001617
           dy -0.0000076-0.0000082 0.0000110 0.0009718-0.0018923 0.0004696
           dz  0.0000165 0.0000028 0.0000333 0.0004393 0.0002353 0.0016140
  24 s     dx  0.0001364 0.0002055-0.0000677 0.0006567 0.0006454-0.0003473
           dy  0.0000883 0.0000630-0.0000387 0.0007067 0.0001056-0.0002980
           dz -0.0000317-0.0000564 0.0000409-0.0002948-0.0001995 0.0000582
  25 h     dx -0.0006782-0.0004490-0.0004585-0.0010462 0.0003165-0.0007176
           dy -0.0010912-0.0014139-0.0005709 0.0011077-0.0008241 0.0007005
           dz -0.0000732 0.0004685 0.0000683-0.0001966-0.0001933-0.0000165
  26 h     dx  0.0000214-0.0003594 0.0005991-0.0002177 0.0006676 0.0008209
           dy -0.0002028-0.0011408 0.0013945 0.0004893-0.0010756-0.0011479
           dz  0.0002787 0.0001347-0.0009048 0.0001920-0.0000039-0.0006194
  27 n     dx -0.0001188-0.0000917 0.0000550-0.0009916-0.0003771 0.0004671
           dy -0.0000727-0.0001282 0.0000417-0.0008252-0.0004778 0.0003707
           dz  0.0000431 0.0000441-0.0000202 0.0002576 0.0000596-0.0002363
  28 n     dx -0.0000416-0.0000499 0.0000229 0.0000114 0.0000638 0.0000197
           dy  0.0000197 0.0000516-0.0000045-0.0000837-0.0006719 0.0001187
           dz  0.0000052 0.0000104-0.0000179-0.0000007 0.0000444-0.0000703

   ATOM             23 h                          24 s 
                  dx        dy        dz        dx        dy        dz
  23 h     dx  0.1829357
           dy  0.1380521 0.2145425
           dz -0.0619569-0.0621179 0.0489058
  24 s     dx -0.0006142 0.0001372-0.0001999 0.3826117
           dy -0.0001815 0.0001661-0.0001250 0.0162573 0.3343775
           dz -0.0001651-0.0002015-0.0012115-0.0986098-0.0367556 0.0941715
  25 h     dx  0.0000276 0.0000007-0.0000095 0.0000051-0.0000033 0.0000028
           dy -0.0000416 0.0000041 0.0000244-0.0000080-0.0000513-0.0000036
           dz -0.0000058-0.0000031 0.0000052-0.0000146-0.0000195 0.0000039
  26 h     dx  0.0000249 0.0000012-0.0000020 0.0000037 0.0000203-0.0000274
           dy -0.0000374 0.0000045 0.0000065-0.0000070-0.0000518-0.0000068
           dz  0.0000003 0.0000001-0.0000017 0.0000113 0.0000297 0.0000084
  27 n     dx -0.0006370 0.0001017 0.0004132-0.0417457-0.0871127 0.0076052
           dy -0.0011171 0.0004451 0.0003661-0.0078970-0.1912351 0.0187057
           dz  0.0005980 0.0000195 0.0007061-0.0015626 0.0427780-0.0548601
  28 n     dx  0.0004112-0.0003148-0.0000757-0.1546906 0.1229816 0.0170276
           dy -0.0001157-0.0000743 0.0000445 0.0434915-0.0848264-0.0090146
           dz -0.0000774 0.0001114 0.0001418 0.0262940-0.0328094-0.0540750

   ATOM             25 h                          26 h 
                  dx        dy        dz        dx        dy        dz
  25 h     dx  0.0626769
           dy -0.0057694 0.0458980
           dz -0.0742444 0.0203495 0.3160710
  26 h     dx  0.0069974 0.0013486 0.0047209 0.2503074
           dy -0.0018521-0.0003660-0.0010479 0.0379696 0.0513001
           dz -0.0250602-0.0045390-0.0148430 0.1292568 0.0236616 0.1227978
  27 n     dx -0.0000048-0.0000167-0.0000038 0.0000117-0.0000403 0.0000104
           dy  0.0000189 0.0000230 0.0000121 0.0000007 0.0000168-0.0000254
           dz -0.0000208 0.0000377 0.0000046 0.0000181-0.0000295-0.0000078
  28 n     dx -0.0000016-0.0000124 0.0000049-0.0000027-0.0000197 0.0000024
           dy  0.0000087-0.0000130-0.0000138 0.0000146-0.0000091 0.0000061
           dz -0.0000026 0.0000077 0.0000000-0.0000044-0.0000001-0.0000011

   ATOM             27 n                          28 n 
                  dx        dy        dz        dx        dy        dz
  27 n     dx  0.5013542
           dy -0.0211290 0.3667194
           dz -0.1248799-0.0267262 0.1190436
  28 n     dx -0.0478677 0.0206585 0.0188109 0.4249648
           dy -0.0045401-0.0651941 0.0114148 0.0742535 0.4318261
           dz  0.0214988 0.0038868 0.0155315-0.1125028-0.0632095 0.1196156
 

   *** projected hessian written onto $hessian (projected), file=<control> ***

 dipole moment in principle axis system (a.u.) :
    -0.1990769791     0.5823055804     0.0378355175
 norm :  0.616557344397550     

 rotational constants b for rotations around axis of inertia
 and optical intensities for (1 <-- 0) transition

   b   :     0.0041407293     0.0265696666     0.0035867288   (cm**(-1))
   b   :         124.1359         796.5386         107.5274     (MHz)
  int. :     0.0396316436     0.3390797889     0.0014315264     (a.u.)

   x   :     0.9494823482    -0.0158440156     0.3134202253
   y   :    -0.0250742277     0.9917014971     0.1260929175
   z   :    -0.3128171248    -0.1275817695     0.9412057897

   ***  normal modes written onto $vibrational normal modes, file=<control>  ***

 keyword $vibrational reduced masses missing in file <control>


   ***  vibrational spectroscopic data written onto$vibrational spectrum   
        file=<control>  ***

          ---------------------------------------------------
          NORMAL MODES and VIBRATIONAL FREQUENCIES (cm**(-1))
          ---------------------------------------------------

 imaginary wave numbers indicate a negative curvature of the energy surface.
 zero frequency modes have no physical meaning except being generators of
 translations and rotations. each vibrational normal mode - given in terms of
 cartesian displacement vectors of all atoms - has been normalized to unity.
 to obtain mass-weigthed normal coordinates in a.u. divide the tabulated
 modes by sqrt(reduced mass * 1822.88853).
 band intensities or cross sections refer to independent non-degenerate normal
 modes, that is, the intensities of degenerate modes have yet to be added.
 dDIP/dQ is the normal mode derivative of the dipole moment.


       mode               1        2        3        4        5        6

     frequency           0.00     0.00     0.00     0.00     0.00     0.00

     symmetry                                                             

        IR                -        -        -        -        -        - 
|dDIP/dQ|   (a.u.)     0.0000   0.0000   0.0000   0.0000   0.0000   0.0000
intensity (km/mol)       0.00     0.00     0.00     0.00     0.00     0.00
intensity (  %   )       0.00     0.00     0.00     0.00     0.00     0.00
 
       RAMAN              -        -        -        -        -        - 
 
  1   c           x   0.10325 -0.12670  0.10640  0.01803  0.08908  0.01402
                  y   0.03623  0.15043  0.02414  0.03355  0.08877  0.02478
                  z  -0.00581  0.00538  0.02942  0.05665 -0.05089  0.24509
  2   c           x   0.10212 -0.13881  0.16427 -0.00433  0.09565  0.01231
                  y   0.03539  0.14598  0.04517  0.02558  0.09144  0.02455
                  z  -0.06091 -0.00446  0.04605  0.07034 -0.01224  0.29368
  3   c           x   0.07293 -0.14469  0.19386  0.01453  0.10633  0.00054
                  y   0.03796  0.13550  0.10398  0.00916  0.09102  0.00533
                  z  -0.16883 -0.01736  0.10607  0.15195  0.02683  0.26647
  4   c           x   0.04626 -0.13844  0.16541  0.05436  0.11007 -0.00898
                  y   0.04123  0.12984  0.13965  0.00121  0.08803 -0.01274
                  z  -0.21814 -0.02007  0.14723  0.21664  0.02637  0.19286
  5   c           x   0.04725 -0.12658  0.10878  0.07637  0.10368 -0.00735
                  y   0.04206  0.13412  0.11948  0.00888  0.08542 -0.01260
                  z  -0.16493 -0.01051  0.13139  0.20386 -0.01125  0.14495
  6   c           x   0.07452 -0.12036  0.07767  0.06015  0.09332  0.00372
                  y   0.03974  0.14429  0.06270  0.02493  0.08558  0.00535
                  z  -0.05972  0.00225  0.07369  0.12592 -0.05043  0.16785
  7   h           x   0.07252 -0.15379  0.23730 -0.00271  0.11115 -0.00058
                  y   0.03729  0.13230  0.11896  0.00339  0.09304  0.00544
                  z  -0.20885 -0.02461  0.11769  0.16098  0.05550  0.30379
  8   h           x   0.02346 -0.14258  0.18641  0.06995  0.11818 -0.01812
                  y   0.04326  0.12173  0.18526 -0.01149  0.08764 -0.02778
                  z  -0.30123 -0.02987  0.19398  0.28055  0.05572  0.16949
  9   c           x   0.10551 -0.10020 -0.02015  0.06717  0.07479  0.01768
                  y   0.03774  0.15787 -0.01082  0.04692  0.08415  0.02477
                  z   0.09467  0.02466  0.00487  0.04319 -0.12906  0.13083
 10   c           x   0.07400 -0.10833  0.02030  0.08406  0.08724  0.00480
                  y   0.04079  0.14854  0.04316  0.03266  0.08265  0.00454
                  z  -0.00702  0.01185  0.05861  0.11447 -0.08848  0.11774
 11   c           x   0.05258 -0.08920 -0.06987  0.14345  0.08294 -0.00136
                  y   0.04490  0.15103  0.03887  0.03895  0.07580 -0.01021
                  z   0.03331  0.02295  0.06323  0.13793 -0.13916  0.00738
 12   c           x   0.09353 -0.08931 -0.07147  0.10075  0.07229  0.01426
                  y   0.04004  0.15926 -0.01318  0.05043  0.08031  0.01651
                  z   0.11741  0.03094  0.00759  0.05665 -0.15779  0.06808
 13   c           x   0.04260 -0.07786 -0.12345  0.17583  0.07969 -0.00396
                  y   0.04702  0.15314  0.03243  0.04360  0.07199 -0.01715
                  z   0.06361  0.03015  0.06181  0.14580 -0.17070 -0.05371
 14   c           x   0.07742 -0.07083 -0.15882  0.15336  0.06694  0.01007
                  y   0.04348  0.16269 -0.02366  0.05798  0.07414  0.00528
                  z   0.16672  0.04267  0.00529  0.06949 -0.20915 -0.03143
 15   c           x   0.11284 -0.07757 -0.12853  0.10353  0.06116  0.02287
                  y   0.03873  0.16739 -0.05745  0.06353  0.07964  0.02864
                  z   0.20965  0.04421 -0.03404  0.00620 -0.20408  0.04824
 16   h           x   0.13547 -0.10244 -0.01104  0.03172  0.06810  0.02888
                  y   0.03404  0.16331 -0.04621  0.05425  0.08786  0.04444
                  z   0.14825  0.02896 -0.03400 -0.01543 -0.13636  0.18475
 17   c           x   0.06998 -0.05948 -0.21258  0.18313  0.06301  0.00843
                  y   0.04532  0.16537 -0.03362  0.06345  0.07057 -0.00001
                  z   0.20280  0.05043  0.00011  0.07190 -0.24206 -0.08865
 18   h           x   0.09272 -0.05251 -0.24706  0.17309  0.05345  0.01785
                  y   0.04320  0.17250 -0.07438  0.07445  0.07140  0.01455
                  z   0.28103  0.06056 -0.04007  0.01940 -0.27483 -0.08379
 19   c           x   0.02980 -0.05817 -0.21671  0.22735  0.07285 -0.00677
                  y   0.05019  0.15783  0.01495  0.05315  0.06580 -0.02625
                  z   0.12652  0.04365  0.05261  0.14969 -0.22787 -0.15276
 20   h           x   0.01540 -0.05044 -0.25285  0.25732  0.07262 -0.01145
                  y   0.05255  0.15778  0.02003  0.05426  0.06235 -0.03594
                  z   0.13189  0.04711  0.06175  0.16982 -0.24599 -0.20544
 21   s           x   0.00080 -0.07069 -0.15547  0.23313  0.08691 -0.01916
                  y   0.05259  0.14743  0.07303  0.03676  0.06562 -0.04468
                  z   0.01054  0.02782  0.10861  0.22043 -0.17455 -0.14413
 22   s           x   0.02850 -0.10235 -0.00583  0.14288  0.09605 -0.01194
                  y   0.04668  0.14153  0.09106  0.02377  0.07623 -0.02537
                  z  -0.07412  0.00771  0.11264  0.19854 -0.08648  0.02638
 23   h           x   0.02546 -0.12215  0.08881  0.10756  0.10709 -0.01519
                  y   0.04463  0.12901  0.15086  0.00154  0.08327 -0.02737
                  z  -0.21025 -0.01350  0.16708  0.25903 -0.00881  0.08686
 24   s           x   0.15587 -0.13327  0.13500 -0.04933  0.07872  0.03341
                  y   0.03025  0.16354 -0.05520  0.05273  0.09338  0.06018
                  z   0.11594  0.01523 -0.05857 -0.07587 -0.06793  0.36615
 25   h           x   0.19563 -0.06759 -0.18052  0.03702  0.03433  0.05553
                  y   0.02620  0.16571 -0.07456  0.05434  0.09866  0.07857
                  z   0.23336  0.04709 -0.04706 -0.01141 -0.21288  0.05350
 26   h           x   0.06799 -0.08410 -0.09502  0.13737  0.07627  0.00507
                  y   0.04706  0.17800 -0.09460  0.08571  0.06395  0.00333
                  z   0.27986  0.05163 -0.07729 -0.05527 -0.22390  0.08465
 27   n           x   0.13245 -0.12267  0.08562 -0.00443  0.07936  0.02559
                  y   0.03352  0.16032 -0.03198  0.04892  0.08959  0.04409
                  z   0.09461  0.01688 -0.02862 -0.02366 -0.08433  0.28018
 28   n           x   0.13041 -0.14342  0.18477 -0.04263  0.09063  0.02262
                  y   0.03209  0.15267  0.00417  0.03524  0.09416  0.04362
                  z   0.00000  0.00000  0.00000  0.00000 -0.01807  0.36326

reduced mass(g/mol)     7.382   11.062    8.851   11.583    9.735   13.098


       mode               7        8        9       10       11       12

     frequency          19.24    43.24    77.34   107.82   147.27   158.67

     symmetry            a        a        a        a        a        a   

        IR               YES      YES      YES      YES      YES      YES
|dDIP/dQ|   (a.u.)     0.0006   0.0006   0.0005   0.0003   0.0000   0.0003
intensity (km/mol)       0.54     0.73     0.48     0.15     0.00     0.16
intensity (  %   )       0.45     0.60     0.40     0.12     0.00     0.13
 
       RAMAN             YES      YES      YES      YES      YES      YES
 
  1   c           x  -0.00222 -0.01432  0.03892  0.04993  0.00577  0.10327
                  y  -0.00249 -0.00913  0.03735  0.02285  0.00553  0.11797
                  z  -0.00129 -0.04132 -0.03220  0.13149  0.00128 -0.04228
  2   c           x   0.00381  0.04605 -0.06555 -0.03458  0.00188  0.04833
                  y  -0.00052  0.01412  0.00323 -0.00860  0.00535  0.12027
                  z   0.01222  0.13337  0.04514 -0.10414 -0.00189  0.01037
  3   c           x  -0.02147  0.08137 -0.07918 -0.05472  0.00227  0.04474
                  y  -0.00951  0.03464 -0.10544 -0.02566  0.00559  0.09918
                  z  -0.07141  0.24468  0.08038 -0.16474 -0.00212  0.00047
  4   c           x  -0.05052  0.05398 -0.00187  0.01928  0.00677  0.05232
                  y  -0.01927  0.03093 -0.17857 -0.00714  0.00631  0.07576
                  z  -0.16388  0.17364  0.03356  0.05144  0.00912 -0.07333
  5   c           x  -0.05606 -0.00201  0.09984  0.08261  0.01103  0.08891
                  y  -0.02168  0.00973 -0.13947  0.01758  0.00827  0.08823
                  z  -0.17729  0.01349 -0.03816  0.22094  0.01828 -0.09677
  6   c           x  -0.03161 -0.03440  0.12392  0.07620  0.00617  0.10018
                  y  -0.01176 -0.01015 -0.03634  0.02257  0.00353  0.07482
                  z  -0.09442 -0.08784 -0.06059  0.19072  0.00392 -0.04351
  7   h           x  -0.01773  0.12755 -0.14802 -0.11676  0.00157  0.04072
                  y  -0.00807  0.05218 -0.12822 -0.04927  0.00528  0.09818
                  z  -0.06156  0.37899  0.13737 -0.34536 -0.00478  0.02498
  8   h           x  -0.07129  0.07859 -0.01221  0.01920  0.00965  0.03690
                  y  -0.02589  0.04626 -0.27072 -0.01660  0.00596  0.03654
                  z  -0.23427  0.25238  0.05381  0.05698  0.01961 -0.10511
  9   c           x  -0.07779 -0.05212  0.16233  0.02877  0.07769 -0.06793
                  y  -0.03036 -0.01732 -0.06283  0.00197  0.02713 -0.09997
                  z  -0.21183 -0.13549 -0.05720  0.05051  0.21315  0.05664
 10   c           x  -0.03069 -0.06718  0.17148  0.05092 -0.00129 -0.01844
                  y  -0.01153 -0.02304 -0.02283  0.01151 -0.00015  0.00466
                  z  -0.09204 -0.17436 -0.07233  0.10832  0.00429  0.03158
 11   c           x  -0.00546 -0.05688  0.09075 -0.06538  0.02431 -0.16646
                  y   0.00013 -0.01944 -0.00855 -0.03291  0.00636 -0.11408
                  z  -0.01853 -0.14883 -0.02338 -0.18841  0.08037  0.05661
 12   c           x  -0.06637 -0.04319  0.11775 -0.03900  0.06865 -0.15903
                  y  -0.02542 -0.01384 -0.07284 -0.02557  0.02425 -0.10887
                  z  -0.17660 -0.11347 -0.02862 -0.12337  0.19445  0.06161
 13   c           x   0.00993 -0.01586 -0.00595 -0.06235  0.01198 -0.12337
                  y   0.00639 -0.00327 -0.00801 -0.02866 -0.00089 -0.16677
                  z   0.02392 -0.04438  0.01076 -0.16109  0.04355  0.03953
 14   c           x  -0.04396  0.02516 -0.02986 -0.04062 -0.05575 -0.09343
                  y  -0.01602  0.01312 -0.10355 -0.02589 -0.02483 -0.08079
                  z  -0.11293  0.06036  0.02810 -0.09982 -0.13316  0.03162
 15   c           x  -0.09810  0.00272  0.05232 -0.05013  0.01056 -0.14562
                  y  -0.03855  0.00451 -0.15278 -0.03425  0.00271 -0.06948
                  z  -0.25476  0.00364  0.00656 -0.13918  0.04216  0.03919
 16   h           x  -0.11532 -0.03773  0.17964  0.06629  0.13105 -0.01146
                  y  -0.04782 -0.01126 -0.08704  0.01671  0.04695 -0.16657
                  z  -0.31449 -0.09702 -0.06788  0.14783  0.35063  0.04893
 17   c           x  -0.03155  0.08792 -0.14278  0.02797 -0.11641  0.08578
                  y  -0.01085  0.03827 -0.12347  0.00335 -0.05064 -0.04753
                  z  -0.07864  0.22067  0.06288  0.10058 -0.30725  0.00260
 18   h           x  -0.06667  0.12918 -0.18209  0.06022 -0.20126  0.15506
                  y  -0.02545  0.05489 -0.20732  0.01095 -0.08045  0.09067
                  z  -0.16759  0.32611  0.08354  0.19258 -0.53183 -0.01653
 19   c           x   0.03201  0.09330 -0.20065  0.05926 -0.04364  0.17742
                  y   0.01553  0.04044 -0.02733  0.02494 -0.02854 -0.18853
                  z   0.08484  0.23443  0.06792  0.19230 -0.13071 -0.00314
 20   h           x   0.05550  0.13446 -0.28353  0.10950 -0.05658  0.29695
                  y   0.02532  0.05683 -0.01547  0.04830 -0.03617 -0.20335
                  z   0.14702  0.33942  0.08996  0.33794 -0.17645 -0.01984
 21   s           x   0.07681  0.02155 -0.12312 -0.00127  0.10218  0.05771
                  y   0.03419  0.01166  0.08242  0.00656  0.02524 -0.35127
                  z   0.19726  0.05123  0.03410  0.02046  0.25479  0.01424
 22   s           x   0.03612 -0.08762  0.13664 -0.02749 -0.10831 -0.09493
                  y   0.01748 -0.03154  0.02383 -0.01994 -0.04195  0.02148
                  z   0.08278 -0.22682 -0.04938 -0.09415 -0.26206  0.05308
 23   h           x  -0.08139 -0.01386  0.15533  0.11549  0.01955  0.08458
                  y  -0.03268  0.01247 -0.19926  0.02398  0.01439  0.07661
                  z  -0.26727 -0.00739 -0.06620  0.31639  0.05526 -0.13750
 24   s           x   0.05449  0.00445 -0.08693  0.00305  0.00218  0.01699
                  y   0.01477 -0.01496  0.20690  0.03014  0.01319  0.27218
                  z   0.18093 -0.00643 -0.00296  0.02449  0.00023 -0.05930
 25   h           x  -0.22858  0.04840  0.05906 -0.08928  0.00685 -0.16349
                  y  -0.08395 -0.06156 -0.19790 -0.04922  0.18233 -0.05365
                  z  -0.28734  0.02087  0.01185 -0.14993  0.02823  0.03256
 26   h           x  -0.02717 -0.02639  0.05820 -0.02883  0.02179 -0.13969
                  y  -0.01723  0.07749 -0.20228 -0.03300 -0.17284 -0.04967
                  z  -0.37611  0.02863  0.01181 -0.17612  0.07702  0.02362
 27   n           x   0.02441 -0.04237  0.03646  0.08269  0.00679  0.09901
                  y   0.00476 -0.02656  0.14584  0.04822  0.01127  0.21320
                  z   0.08821 -0.13318 -0.06604  0.23669  0.00255 -0.09380
 28   n           x   0.03517  0.06210 -0.14017 -0.07491 -0.00145 -0.01137
                  y   0.00952  0.01314  0.09020 -0.01115  0.00786  0.18408
                  z   0.11173  0.17010  0.06994 -0.20763 -0.00372  0.02511

reduced mass(g/mol)     7.251    7.642    8.479    6.813    8.779   13.222


       mode              13       14       15       16       17       18

     frequency         181.31   218.38   255.76   260.45   266.81   282.84

     symmetry            a        a        a        a        a        a   

        IR               YES      YES      YES      YES      YES      YES
|dDIP/dQ|   (a.u.)     0.0004   0.0009   0.0023   0.0004   0.0006   0.0005
intensity (km/mol)       0.26     1.29     9.23     0.32     0.62     0.45
intensity (  %   )       0.21     1.06     7.60     0.26     0.51     0.37
 
       RAMAN             YES      YES      YES      YES      YES      YES
 
  1   c           x   0.03245 -0.09547  0.00118  0.11253  0.05375  0.14870
                  y   0.00461 -0.03967  0.00304 -0.09682 -0.01550 -0.08378
                  z   0.13019 -0.31294  0.01010 -0.03988  0.04989 -0.07318
  2   c           x   0.05635 -0.03975  0.00587  0.01510  0.04909  0.06147
                  y   0.01112 -0.01888  0.00577 -0.15692 -0.01848 -0.09510
                  z   0.19419 -0.12996  0.01914 -0.02228  0.12357 -0.06284
  3   c           x   0.02957 -0.04754 -0.00479  0.01517 -0.03809  0.10709
[...]
                  z   0.00615  0.11180  0.04352 -0.01807  0.02986  0.00347
  7   h           x  -0.03504  0.33649  0.40986 -0.09730  0.14231 -0.03141
                  y  -0.01704  0.12667  0.17313 -0.03884  0.05700  0.08060
                  z   0.01303 -0.11445 -0.14327  0.03314 -0.04852  0.00020
  8   h           x  -0.01864  0.07189  0.16246 -0.04738  0.08775 -0.05097
                  y  -0.01929  0.33787  0.22602 -0.03874  0.04336  0.28449
                  z   0.00789 -0.06248 -0.07633  0.01875 -0.03104 -0.01742
  9   c           x   0.01916  0.06813 -0.05173  0.02551 -0.03645  0.14494
                  y  -0.11922  0.06898 -0.00109  0.15923 -0.25117 -0.16492
                  z   0.01048 -0.03691  0.02061 -0.03369  0.05145 -0.03102
 10   c           x  -0.03164 -0.11553  0.16968 -0.06938  0.10981 -0.11951
                  y   0.04310  0.17551 -0.19839  0.01194  0.00230  0.08418
                  z   0.00539  0.01914 -0.03396  0.02463 -0.04206  0.03294
 11   c           x  -0.19197 -0.07980  0.22403  0.08490 -0.08955  0.04755
                  y   0.40192 -0.09492  0.25317 -0.00924 -0.25380 -0.01556
                  z   0.01326  0.04582 -0.12622 -0.03175  0.07409 -0.01632
 12   c           x   0.10270  0.14611 -0.31010 -0.05568  0.08998 -0.10234
                  y   0.09922 -0.20799 -0.00993 -0.26855  0.47221  0.10733
                  z  -0.05478 -0.02550  0.12228  0.06227 -0.10652  0.02363
 13   c           x   0.11860  0.07280 -0.08875 -0.17524 -0.09857  0.14729
                  y  -0.43276  0.08254 -0.13427  0.20825  0.19118  0.00092
                  z   0.02063 -0.04139  0.05552  0.03629  0.00883 -0.05772
 14   c           x  -0.05944 -0.06232  0.06784  0.22229  0.11872 -0.20055
                  y  -0.23876  0.00581 -0.03496 -0.45250 -0.25523 -0.08995
                  z   0.06033  0.02348 -0.02112 -0.01657 -0.00665  0.09228
 15   c           x   0.03900 -0.05255  0.05035 -0.01802  0.03228  0.05440
                  y   0.08511  0.09314 -0.03068  0.19607 -0.05188 -0.00110
                  z  -0.02830  0.00617 -0.01488 -0.02288 -0.00471 -0.02095
 16   h           x  -0.05952  0.09616 -0.13379  0.15353 -0.27225 -0.15042
                  y  -0.02442  0.07376  0.07989  0.02446  0.00605  0.24748
                  z   0.02578 -0.04593  0.03893 -0.06179  0.10186  0.01592
 17   c           x  -0.18087 -0.05490  0.07615 -0.05961 -0.03409  0.18844
                  y   0.10103 -0.05555  0.10113  0.27640  0.14307  0.20773
                  z   0.05497  0.03019 -0.04557 -0.01994 -0.00906 -0.10623
 18   h           x  -0.25132 -0.01500 -0.00096 -0.26519 -0.15111 -0.06985
                  y   0.05000  0.05261 -0.09409 -0.10278 -0.07091 -0.41111
                  z   0.09055 -0.00228  0.01496  0.11957  0.07009  0.09164
 19   c           x   0.21450  0.06844 -0.09055  0.07590  0.04667 -0.16773
                  y   0.07730  0.03140 -0.04406 -0.04347 -0.02642 -0.09158
                  z  -0.09610 -0.03171  0.04233 -0.02292 -0.01413  0.08000
 20   h           x  -0.41805 -0.07668  0.08245 -0.21840 -0.11885  0.08679
                  y   0.21268  0.06405 -0.08524  0.00598  0.00117 -0.16928
                  z   0.13039  0.01991 -0.01880  0.08492  0.04661 -0.00743
 21   s           x  -0.00236 -0.00477  0.00526 -0.00910 -0.00491 -0.00031
                  y   0.02482 -0.00640  0.00787 -0.00454 -0.00444 -0.00432
                  z  -0.00296  0.00287 -0.00330  0.00426  0.00260  0.00079
 22   s           x   0.01748 -0.00020 -0.00258  0.00178 -0.00848 -0.00124
                  y  -0.02787  0.00259 -0.00256  0.00238  0.00752  0.00190
                  z  -0.00262 -0.00032  0.00128 -0.00097  0.00205  0.00029
 23   h           x   0.00596 -0.09229  0.09487 -0.09820  0.23433 -0.21975
                  y  -0.00427  0.25184 -0.00713  0.06802 -0.18544  0.29252
                  z   0.00048 -0.00322 -0.02911  0.01879 -0.04360  0.02979
 24   s           x  -0.00045 -0.02800 -0.01511  0.00509 -0.00872  0.00005
                  y  -0.00075 -0.01032 -0.00187  0.00124 -0.00269  0.00008
                  z   0.00023  0.00963  0.00478 -0.00169  0.00295 -0.00001
 25   h           x  -0.14427  0.06619  0.11039 -0.03430 -0.22139  0.07233
                  y  -0.04460 -0.02144 -0.10138 -0.31012  0.04413  0.05855
                  z  -0.06649  0.04699  0.00407  0.01108 -0.07979 -0.02042
 26   h           x  -0.05886  0.02016  0.08954 -0.00102 -0.11611  0.06136
                  y  -0.00930 -0.03966 -0.10959 -0.29604  0.08601  0.05419
                  z   0.15361 -0.07156 -0.04965  0.09448  0.19131 -0.04884
 27   n           x   0.01585 -0.02953 -0.12403  0.03432 -0.06496  0.09468
                  y  -0.00165  0.00750  0.02229 -0.00457  0.00315  0.00565
                  z  -0.00455  0.00804  0.03480 -0.00984  0.01925 -0.02902
 28   n           x  -0.00795 -0.01494  0.02766 -0.00771  0.02039 -0.07501
                  y  -0.00553 -0.02957  0.00473 -0.00321  0.01507 -0.05301
                  z   0.00302  0.00787 -0.00890  0.00269 -0.00786  0.02861

reduced mass(g/mol)     7.947    7.835    7.588    7.583    7.890    6.032


       mode              73       74       75       76       77       78

     frequency        1569.65  1586.53  1611.75  1678.33  3064.53  3113.81

     symmetry            a        a        a        a        a        a   

        IR               YES      YES      YES      YES      YES      YES
|dDIP/dQ|   (a.u.)     0.0028   0.0068   0.0083   0.0033   0.0015   0.0009
intensity (km/mol)      13.68    82.54   121.35    19.43     4.05     1.41
intensity (  %   )      11.27    68.02   100.00    16.01     3.34     1.16
 
       RAMAN             YES      YES      YES      YES      YES      YES
 
  1   c           x   0.19440 -0.12748  0.08142  0.19188  0.00000  0.00000
                  y   0.07391 -0.07643  0.21934  0.05153 -0.00001  0.00000
                  z  -0.06700  0.04673 -0.04974 -0.06416  0.00000  0.00000
  2   c           x  -0.21378  0.19716  0.17708 -0.26613  0.00001  0.00000
                  y  -0.08165  0.05443 -0.09909 -0.06227 -0.00001  0.00000
                  z   0.07368 -0.06551 -0.04182  0.08732  0.00000  0.00000
  3   c           x   0.01780 -0.07164  0.03343  0.32123 -0.00001  0.00000
                  y  -0.08092  0.05619  0.21689  0.17125  0.00000  0.00000
                  z   0.00394  0.01510 -0.03524 -0.11649  0.00000  0.00000
  4   c           x   0.07690 -0.01219 -0.04918 -0.18402  0.00001  0.00000
                  y   0.12986 -0.13330 -0.40906 -0.18465  0.00003  0.00000
                  z  -0.03807  0.01921  0.06196  0.07662 -0.00001  0.00001
  5   c           x  -0.12628  0.02421 -0.18843  0.25336  0.00002  0.00000
                  y   0.04193  0.03370  0.28907 -0.08780 -0.00006  0.00000
                  z   0.03260 -0.01079  0.02216 -0.06534  0.00000  0.00000
  6   c           x   0.05345 -0.04760  0.08822 -0.29790 -0.00003 -0.00001
                  y  -0.11498  0.19189 -0.26467  0.05473  0.00011  0.00000
                  z  -0.00226 -0.00887  0.00536  0.08362 -0.00001 -0.00002
  7   h           x  -0.02184  0.10918 -0.09876 -0.37678  0.00004  0.00000
                  y  -0.12387  0.14270  0.21409 -0.04958 -0.00016 -0.00001
                  z   0.02106 -0.04973  0.00546  0.11849  0.00001 -0.00001
  8   h           x   0.02913  0.03654  0.06029 -0.15809 -0.00023 -0.00001
                  y  -0.34038  0.24931  0.47733  0.28017  0.00003  0.00000
                  z   0.03066 -0.04029 -0.07151  0.01549  0.00007  0.00000
  9   c           x  -0.05589 -0.27135  0.00086 -0.03761 -0.00025  0.00011
                  y   0.10235  0.23079  0.04015  0.00053  0.00030  0.00004
                  z   0.00594  0.07030 -0.00698  0.01443  0.00005  0.00027
 10   c           x   0.01798  0.27211 -0.02941  0.08224  0.00037 -0.00001
                  y   0.01029 -0.26011  0.07465 -0.05756 -0.00022  0.00000
                  z  -0.00843 -0.06473  0.00058 -0.02134 -0.00011 -0.00002
 11   c           x  -0.08232 -0.19287  0.02714 -0.01049 -0.00065 -0.00009
                  y   0.00588 -0.03170  0.02833 -0.00546 -0.00014 -0.00003
                  z   0.03143  0.08018 -0.01481  0.00483  0.00027 -0.00021
 12   c           x   0.08938  0.24646 -0.02250  0.01516 -0.00063 -0.00007
                  y  -0.10186 -0.05637 -0.08116  0.02436  0.00060 -0.00003
                  z  -0.01937 -0.08764  0.02106 -0.00973  0.00016 -0.00018
 13   c           x   0.19117  0.07069  0.00763 -0.00449 -0.00070 -0.00010
                  y  -0.01366  0.01202 -0.01525  0.00285  0.00006 -0.00003
                  z  -0.07267 -0.02956 -0.00063  0.00120  0.00026 -0.00024
 14   c           x  -0.22535 -0.05849 -0.00891  0.00536 -0.00044 -0.00008
                  y  -0.08208 -0.04451  0.01396 -0.00257 -0.00073 -0.00004
                  z   0.10076  0.02980  0.00129 -0.00169  0.00030 -0.00018
 15   c           x   0.01191 -0.02726 -0.00384 -0.00088  0.06548 -0.03324
                  y   0.05400  0.03218  0.01290 -0.00501  0.00491 -0.01312
                  z  -0.01294  0.00557 -0.00044  0.00109 -0.02580 -0.08630
 16   h           x   0.10869  0.22000  0.02575 -0.02597  0.00222 -0.00023
                  y  -0.11397 -0.47698  0.01864 -0.03210  0.00085 -0.00009
                  z  -0.02175 -0.00636 -0.01085  0.01721 -0.00097 -0.00055
 17   c           x   0.18111  0.04145 -0.00110 -0.00126 -0.00026  0.00010
                  y   0.19992  0.06258 -0.00775  0.00054 -0.00026  0.00004
                  z  -0.10215 -0.02599  0.00164  0.00044  0.00014  0.00026
 18   h           x  -0.07193 -0.03194  0.00408 -0.00034  0.00334 -0.00019
                  y  -0.40401 -0.10528  0.00288  0.00311 -0.00101 -0.00009
                  z   0.09140  0.02896 -0.00198 -0.00037 -0.00114 -0.00055
 19   c           x  -0.15864 -0.03433  0.00122  0.00080  0.00033  0.00001
                  y  -0.08583 -0.02041  0.00076  0.00042  0.00012  0.00000
                  z   0.07554  0.01664 -0.00060 -0.00038 -0.00015  0.00001
 20   h           x   0.06535 -0.00702  0.00140 -0.00149  0.00036 -0.00016
                  y  -0.15732 -0.03277  0.00054  0.00117  0.00118 -0.00005
                  z  -0.00090  0.00782 -0.00062  0.00037 -0.00032 -0.00040
 21   s           x  -0.00175 -0.00232  0.00034 -0.00012 -0.00004 -0.00001
                  y  -0.00404 -0.00154  0.00056 -0.00008  0.00005  0.00000
                  z   0.00132  0.00114 -0.00022  0.00007  0.00001 -0.00002
 22   s           x   0.00339  0.00278  0.00190 -0.00187 -0.00002 -0.00001
                  y  -0.00039 -0.00300  0.00068  0.00110 -0.00005  0.00000
                  z  -0.00136 -0.00072 -0.00079  0.00066  0.00002 -0.00002
 23   h           x   0.22049 -0.07241  0.32987 -0.20545  0.00013  0.00001
                  y  -0.31282  0.14430 -0.20895  0.38817  0.00019  0.00001
                  z  -0.02666  0.00271 -0.07113  0.01268 -0.00005 -0.00005
 24   s           x   0.00042  0.00005 -0.00466  0.00580  0.00000  0.00000
                  y  -0.00103  0.00343 -0.00320 -0.00583  0.00000  0.00000
                  z  -0.00004 -0.00040  0.00174 -0.00108  0.00000  0.00000
 25   h           x   0.04774 -0.05926  0.01930 -0.00830 -0.17052 -0.19480
                  y   0.07740  0.07555 -0.01636  0.00820  0.05260  0.04968
                  z  -0.00459 -0.00746  0.00895 -0.00245  0.67917  0.67805
 26   h           x   0.03041 -0.04697  0.01012 -0.00531 -0.58716  0.59353
                  y   0.07125  0.08063 -0.01993  0.00911 -0.10972  0.10782
                  z  -0.04859  0.02485 -0.01484  0.00503 -0.38090  0.35664
 27   n           x  -0.09990  0.04878 -0.05144 -0.05715  0.00000  0.00000
                  y  -0.00857  0.00644 -0.02388  0.00571  0.00000  0.00000
                  z   0.03097 -0.01563  0.01827  0.01647  0.00000  0.00000
 28   n           x   0.08996 -0.06825 -0.06581  0.04701  0.00000  0.00000
                  y   0.06589 -0.05319 -0.02172  0.04654 -0.00001  0.00000
                  z  -0.03457  0.02660  0.02236 -0.01943  0.00000  0.00000

reduced mass(g/mol)     6.243    7.251    7.052    6.995    1.063    1.104


       mode              79       80       81       82       83       84

     frequency        3203.06  3219.06  3239.75  3249.05  3267.28  3276.62

     symmetry            a        a        a        a        a        a   

        IR               YES      YES      YES      YES      YES      YES
|dDIP/dQ|   (a.u.)     0.0030   0.0015   0.0022   0.0008   0.0017   0.0020
intensity (km/mol)      15.75     4.19     8.97     1.27     5.21     7.42
intensity (  %   )      12.98     3.45     7.39     1.05     4.29     6.11
 
       RAMAN             YES      YES      YES      YES      YES      YES
 
  1   c           x  -0.00027  0.00029  0.00000  0.00021 -0.00021  0.00000
                  y  -0.00032  0.00033  0.00001 -0.00045 -0.00037  0.00001
                  z   0.00012 -0.00013  0.00000 -0.00001  0.00011  0.00000
  2   c           x  -0.00008 -0.00028 -0.00001  0.00375  0.00003  0.00000
                  y  -0.00012  0.00012  0.00001 -0.00034  0.00000  0.00000
                  z   0.00003  0.00007  0.00000 -0.00109  0.00000  0.00000
  3   c           x   0.00298  0.00909  0.00002 -0.02646 -0.00017 -0.00002
                  y  -0.00517 -0.01670 -0.00008  0.08239  0.00044  0.00005
                  z  -0.00030 -0.00080  0.00000 -0.00160  0.00000  0.00000
  4   c           x  -0.03619 -0.07176  0.00021 -0.02335 -0.00004  0.00005
                  y   0.00363  0.01355 -0.00004 -0.00051  0.00004 -0.00002
                  z   0.01038  0.01989 -0.00006  0.00705  0.00001 -0.00001
  5   c           x   0.05100 -0.02484 -0.00003 -0.00144 -0.00006 -0.00002
                  y   0.05366 -0.03025  0.00002 -0.00378 -0.00023  0.00001
                  z  -0.02098  0.01068  0.00001  0.00084  0.00005  0.00000
  6   c           x  -0.00301  0.00212  0.00002 -0.00002  0.00035  0.00001
                  y   0.00128 -0.00087 -0.00006  0.00001 -0.00016 -0.00005
                  z   0.00076 -0.00053  0.00000  0.00001 -0.00013  0.00000
  7   h           x  -0.02602 -0.08022 -0.00032  0.31566  0.00184  0.00019
                  y   0.07348  0.22368  0.00097 -0.91201 -0.00500 -0.00053
                  z  -0.00061 -0.00183 -0.00002  0.01086  0.00004  0.00000
  8   h           x   0.42396  0.81364 -0.00221  0.23080  0.00080 -0.00046
                  y  -0.07131 -0.14375  0.00039 -0.03713 -0.00014  0.00009
                  z  -0.11846 -0.22645  0.00062 -0.06467 -0.00022  0.00013
  9   c           x   0.00020  0.00002  0.00010 -0.00043  0.06533 -0.00023
                  y  -0.00012  0.00001  0.00007 -0.00020  0.05093 -0.00018
                  z  -0.00007  0.00000 -0.00005  0.00019 -0.03277  0.00011
 10   c           x   0.00022 -0.00030  0.00000  0.00008 -0.00354  0.00003
                  y   0.00031  0.00000  0.00010 -0.00016  0.00211  0.00006
                  z  -0.00010  0.00009 -0.00001 -0.00001  0.00107 -0.00002
 11   c           x  -0.00009 -0.00001 -0.00003  0.00005 -0.00057  0.00009
                  y  -0.00017  0.00008  0.00006  0.00001 -0.00050  0.00004
                  z   0.00004  0.00000  0.00000 -0.00002  0.00031 -0.00004
 12   c           x   0.00001  0.00004  0.00007 -0.00003 -0.00012 -0.00006
                  y   0.00014  0.00001  0.00014 -0.00003 -0.00448 -0.00003
                  z  -0.00002 -0.00002 -0.00005  0.00002  0.00072  0.00003
 13   c           x  -0.00004  0.00000  0.00069  0.00001 -0.00003  0.00020
                  y   0.00001 -0.00001  0.00006 -0.00002  0.00013  0.00112
                  z   0.00001  0.00000 -0.00028  0.00000  0.00000 -0.00026
 14   c           x   0.00002  0.00000  0.00027 -0.00001 -0.00006 -0.00074
                  y   0.00000  0.00001 -0.00403 -0.00001  0.00012  0.00212
                  z  -0.00001  0.00000  0.00053  0.00000  0.00001 -0.00004
 15   c           x   0.00000  0.00003 -0.00034 -0.00001  0.00021  0.00000
                  y  -0.00002  0.00001  0.00023  0.00000  0.00028 -0.00008
                  z   0.00001 -0.00001  0.00010  0.00001 -0.00013  0.00002
 16   h           x  -0.00155  0.00037 -0.00144  0.00404 -0.72543  0.00243
                  y  -0.00082  0.00014 -0.00115  0.00301 -0.57693  0.00199
                  z   0.00073 -0.00017  0.00072 -0.00201  0.36452 -0.00123
 17   c           x  -0.00006 -0.00011 -0.07248 -0.00013  0.00025  0.02307
                  y   0.00004  0.00006  0.03984  0.00006 -0.00009 -0.00750
                  z   0.00002  0.00003  0.02208  0.00004 -0.00008 -0.00784
 18   h           x   0.00077  0.00134  0.81835  0.00138 -0.00224 -0.20375
                  y  -0.00040 -0.00073 -0.44716 -0.00076  0.00120  0.10850
                  z  -0.00024 -0.00041 -0.24977 -0.00042  0.00069  0.06263
 19   c           x  -0.00001 -0.00002  0.00080  0.00001 -0.00007 -0.01156
                  y  -0.00003 -0.00006 -0.01867  0.00000 -0.00023 -0.08476
                  z   0.00001  0.00002  0.00260 -0.00001  0.00006  0.01777
 20   h           x   0.00003  0.00009  0.01956 -0.00001  0.00031  0.08792
                  y   0.00055  0.00095  0.24046 -0.00005  0.00273  0.94531
                  z  -0.00010 -0.00018 -0.04521  0.00001 -0.00055 -0.18207
 21   s           x   0.00000  0.00000  0.00018  0.00000 -0.00001 -0.00049
                  y   0.00000  0.00000 -0.00016  0.00000 -0.00001  0.00026
                  z   0.00000  0.00000 -0.00004  0.00000  0.00000  0.00015
 22   s           x   0.00001  0.00000  0.00001  0.00001 -0.00029  0.00001
                  y  -0.00001 -0.00001 -0.00001  0.00001 -0.00027 -0.00001
                  z   0.00000  0.00000  0.00000  0.00000  0.00016  0.00000
 23   h           x  -0.57334  0.28774  0.00006  0.02384  0.00131  0.00004
                  y  -0.63383  0.32322  0.00001  0.02873  0.00132  0.00002
                  z   0.23918 -0.12066 -0.00002 -0.01023 -0.00052 -0.00001
 24   s           x   0.00004  0.00003  0.00000 -0.00013  0.00003  0.00000
                  y  -0.00004 -0.00002  0.00000  0.00000  0.00011  0.00000
                  z  -0.00001 -0.00001  0.00000  0.00004 -0.00002  0.00000
 25   h           x  -0.00013  0.00001  0.00068  0.00002 -0.00056 -0.00002
                  y   0.00011 -0.00003  0.00044 -0.00001  0.00063 -0.00028
                  z   0.00025  0.00007 -0.00253 -0.00009  0.00148 -0.00003
 26   h           x  -0.00022 -0.00005  0.00212  0.00007 -0.00150  0.00003
                  y   0.00004 -0.00004  0.00101  0.00001  0.00028 -0.00026
                  z  -0.00011 -0.00005  0.00121  0.00005 -0.00085  0.00010
 27   n           x   0.00011 -0.00006  0.00000  0.00001  0.00021  0.00000
                  y   0.00007  0.00000  0.00000  0.00003  0.00073  0.00000
                  z  -0.00004  0.00002  0.00000 -0.00001 -0.00015  0.00000
 28   n           x  -0.00011 -0.00011  0.00000 -0.00023  0.00006  0.00000
                  y  -0.00001 -0.00007  0.00001  0.00000 -0.00002  0.00000
                  z   0.00003  0.00004  0.00000  0.00007 -0.00001  0.00000

reduced mass(g/mol)     1.089    1.093    1.093    1.097    1.096    1.099
 

         **************************************************************
         *                                                            *
         *  zero point VIBRATIONAL energy  :      0.1944289  Hartree  *
         *    SCF-energy                   :  -1878.3975023           *
         *    SCF + E(vib0)                :  -1878.2030734           *
         *                                                            *
         **************************************************************




 time elapsed for vibrational analysis     0.27 sec


    ------------------------------------------------------------------------
         total  cpu-time :  1 minutes and 17 seconds
         total wall-time : 22 minutes and 16 seconds
    ------------------------------------------------------------------------


   ****  force : all done  ****


    2013-06-18 18:24:29.310 

