 Entering Gaussian System, Link 0=g09
 Input=gaussian.gjf
 Output=gaussian.log
 Initial command:
 /opt//g09/l1.exe /tmp/Gau-8293.inp -scrdir=/tmp/
 Entering Link 1 = /opt//g09/l1.exe PID=      8295.
  
 Copyright (c) 1988,1990,1992,1993,1995,1998,2003,2009, Gaussian, Inc.
                  All Rights Reserved.
  
 This is part of the Gaussian(R) 09 program.  It is based on
 the Gaussian(R) 03 system (copyright 2003, Gaussian, Inc.),
 the Gaussian(R) 98 system (copyright 1998, Gaussian, Inc.),
 the Gaussian(R) 94 system (copyright 1995, Gaussian, Inc.),
 the Gaussian 92(TM) system (copyright 1992, Gaussian, Inc.),
 the Gaussian 90(TM) system (copyright 1990, Gaussian, Inc.),
 the Gaussian 88(TM) system (copyright 1988, Gaussian, Inc.),
 the Gaussian 86(TM) system (copyright 1986, Carnegie Mellon
 University), and the Gaussian 82(TM) system (copyright 1983,
 Carnegie Mellon University). Gaussian is a federally registered
 trademark of Gaussian, Inc.
  
 This software contains proprietary and confidential information,
 including trade secrets, belonging to Gaussian, Inc.
  
 This software is provided under written license and may be
 used, copied, transmitted, or stored only in accord with that
 written license.
  
 The following legend is applicable only to US Government
 contracts under FAR:
  
                    RESTRICTED RIGHTS LEGEND
  
 Use, reproduction and disclosure by the US Government is
 subject to restrictions as set forth in subparagraphs (a)
 and (c) of the Commercial Computer Software - Restricted
 Rights clause in FAR 52.227-19.
  
 Gaussian, Inc.
 340 Quinnipiac St., Bldg. 40, Wallingford CT 06492
  
  
 ---------------------------------------------------------------
 Warning -- This program may not be used in any manner that
 competes with the business of Gaussian, Inc. or will provide
 assistance to any competitor of Gaussian, Inc.  The licensee
 of this program is prohibited from giving any competitor of
 Gaussian, Inc. access to this program.  By using this program,
 the user acknowledges that Gaussian, Inc. is engaged in the
 business of creating and licensing software in the field of
 computational chemistry and represents and warrants to the
 licensee that it is not a competitor of Gaussian, Inc. and that
 it will not use this program in any manner prohibited above.
 ---------------------------------------------------------------
  

 Cite this work as:
 Gaussian 09, Revision A.01,
 M. J. Frisch, G. W. Trucks, H. B. Schlegel, G. E. Scuseria, 
 M. A. Robb, J. R. Cheeseman, G. Scalmani, V. Barone, B. Mennucci, 
 G. A. Petersson, H. Nakatsuji, M. Caricato, X. Li, H. P. Hratchian, 
 A. F. Izmaylov, J. Bloino, G. Zheng, J. L. Sonnenberg, M. Hada, 
 M. Ehara, K. Toyota, R. Fukuda, J. Hasegawa, M. Ishida, T. Nakajima, 
 Y. Honda, O. Kitao, H. Nakai, T. Vreven, J. A. Montgomery, Jr., 
 J. E. Peralta, F. Ogliaro, M. Bearpark, J. J. Heyd, E. Brothers, 
 K. N. Kudin, V. N. Staroverov, R. Kobayashi, J. Normand, 
 K. Raghavachari, A. Rendell, J. C. Burant, S. S. Iyengar, J. Tomasi, 
 M. Cossi, N. Rega, J. M. Millam, M. Klene, J. E. Knox, J. B. Cross, 
 V. Bakken, C. Adamo, J. Jaramillo, R. Gomperts, R. E. Stratmann, 
 O. Yazyev, A. J. Austin, R. Cammi, C. Pomelli, J. W. Ochterski, 
 R. L. Martin, K. Morokuma, V. G. Zakrzewski, G. A. Voth, 
 P. Salvador, J. J. Dannenberg, S. Dapprich, A. D. Daniels, 
 O. Farkas, J. B. Foresman, J. V. Ortiz, J. Cioslowski, 
 and D. J. Fox, Gaussian, Inc., Wallingford CT, 2009.
 
 ******************************************
 Gaussian 09:  EM64L-G09RevA.01  8-May-2009
                 6-Jan-2014 
 ******************************************
 %chk=gaussian.chk
 %mem=1GB
 %nproc=2
 Will use up to    2 processors via shared memory.
 ----------------------------------------------------------------------
 # force td(singlet, root=1, nstates=2) lc-blyp/6-31g* scf=(tight,maxcy
 cle=10000) iop(9/40=20) nosymm pop=full
 ----------------------------------------------------------------------
 1/10=7,30=1,38=1/1,3;
 2/12=2,15=1,17=6,18=5,40=1/2;
 3/5=1,6=6,7=1,11=2,16=1,25=1,30=1,71=1,74=1000402/1,2,8,3;
 4//1;
 5/5=2,7=10000,32=2,38=5/2;
 8/6=1,10=2,107=1,108=2/1;
 9/8=1,15=2,40=20,41=2,42=1,48=1/14;
 10/5=4,31=1/2;
 6/7=3,18=1/1;
 7/12=6,13=5,14=1,29=1,30=1/1,2,3,16;
 1/10=7,30=1/3;
 99//99;
 -------
 [0] [0]
 -------
 Symbolic Z-matrix:
 Charge =  1 Multiplicity = 1
 c                    -3.17128   0.40996   0.23193 
 n                    -0.63414   0.08013   0.04514 
 h                    -3.56582   1.06538   1.23528 
 h                    -3.85853  -0.10937  -0.68992 
 h                    -0.1125   -0.52051  -0.81396 
 h                     0.14127   0.50518   0.81263 
 

 GradGradGradGradGradGradGradGradGradGradGradGradGradGradGradGradGradGrad
 Berny optimization.
 Initialization pass.
 Trust Radius=3.00D-01 FncErr=1.00D-07 GrdErr=1.00D-07
 Number of steps in this run=   2 maximum allowed number of steps=   2.
 GradGradGradGradGradGradGradGradGradGradGradGradGradGradGradGradGradGrad

                          Input orientation:                          
 ---------------------------------------------------------------------
 Center     Atomic      Atomic             Coordinates (Angstroms)
 Number     Number       Type             X           Y           Z
 ---------------------------------------------------------------------
      1          6           0       -3.171284    0.409959    0.231934
      2          7           0       -0.634141    0.080135    0.045143
      3          1           0       -3.565819    1.065378    1.235284
      4          1           0       -3.858526   -0.109366   -0.689919
      5          1           0       -0.112502   -0.520507   -0.813956
      6          1           0        0.141274    0.505178    0.812635
 ---------------------------------------------------------------------
                    Distance matrix (angstroms):
                    1          2          3          4          5
     1  C    0.000000
     2  N    2.565301   0.000000
     3  H    1.261722   3.313891   0.000000
     4  H    1.261671   3.312535   2.274227   0.000000
     5  H    3.363896   1.170867   4.317384   3.770559   0.000000
     6  H    3.364420   1.170886   3.772929   4.316681   1.939647
                    6
     6  H    0.000000
 Symmetry turned off by external request.
 Stoichiometry    CH4N(1+)
 Framework group  C1[X(CH4N)]
 Deg. of freedom    12
 Full point group                 C1      NOp   1
 Rotational constants (GHZ):    112.2525397      8.8909116      8.2384672
 Standard basis: 6-31G(d) (6D, 7F)
 Integral buffers will be    131072 words long.
 Raffenetti 2 integral format.
 Two-electron integral symmetry is turned off.
    38 basis functions,    72 primitive gaussians,    38 cartesian basis functions
     8 alpha electrons        8 beta electrons
       nuclear repulsion energy        25.1790641878 Hartrees.
 NAtoms=    6 NActive=    6 NUniq=    6 SFac= 7.50D-01 NAtFMM=   80 NAOKFM=F Big=F
 One-electron integrals computed using PRISM.
 NBasis=    38 RedAO= T  NBF=    38
 NBsUse=    38 1.00D-06 NBFU=    38
 Harris functional with IExCor=10402 diagonalized for initial guess.
 ExpMin= 1.61D-01 ExpMax= 4.17D+03 ExpMxC= 6.27D+02 IAcc=1 IRadAn=         1 AccDes= 0.00D+00
 HarFok:  IExCor=10402 AccDes= 0.00D+00 IRadAn=         1 IDoV= 1
 ScaDFX=  1.000000  1.000000  1.000000  1.000000
 FoFCou: FMM=F IPFlag=           0 FMFlag=      100000 FMFlg1=           0
         NFxFlg=           0 DoJE=T BraDBF=F KetDBF=T FulRan=T
         Omega=  0.000000  0.000000  1.000000  0.000000  0.000000 ICntrl=     500 IOpCl=  0
         NMat0=    1 NMatS0=    1 NMatT0=    0 NMatD0=    1 NMtDS0=    0 NMtDT0=    0
         I1Cent=           4 NGrid=           0.
 Symmetry not used in FoFCou.
 Requested convergence on RMS density matrix=1.00D-08 within**** cycles.
 Requested convergence on MAX density matrix=1.00D-06.
 Requested convergence on             energy=1.00D-06.
 No special actions if energy rises.
 Integral accuracy reduced to 1.0D-05 until final iterations.
 FoFJK:  IHMeth= 1 ICntrl=     0 DoSepK=T KAlg= 1 I1Cent= 0 FoldK=F
 FoFJK:  IHMeth= 1 ICntrl=     0 DoSepK=T KAlg= 1 I1Cent= 0 FoldK=F
 FoFJK:  IHMeth= 1 ICntrl=     0 DoSepK=T KAlg= 1 I1Cent= 0 FoldK=F
 FoFJK:  IHMeth= 1 ICntrl=     0 DoSepK=T KAlg= 1 I1Cent= 0 FoldK=F
 FoFJK:  IHMeth= 1 ICntrl=     0 DoSepK=T KAlg= 1 I1Cent= 0 FoldK=F
 FoFJK:  IHMeth= 1 ICntrl=     0 DoSepK=T KAlg= 1 I1Cent= 0 FoldK=F
 FoFJK:  IHMeth= 1 ICntrl=     0 DoSepK=T KAlg= 1 I1Cent= 0 FoldK=F
 FoFJK:  IHMeth= 1 ICntrl=     0 DoSepK=T KAlg= 1 I1Cent= 0 FoldK=F
 Initial convergence to 1.0D-05 achieved.  Increase integral accuracy.
 FoFJK:  IHMeth= 1 ICntrl=     0 DoSepK=T KAlg= 1 I1Cent= 0 FoldK=F
 FoFJK:  IHMeth= 1 ICntrl=     0 DoSepK=T KAlg= 1 I1Cent= 0 FoldK=F
 FoFJK:  IHMeth= 1 ICntrl=     0 DoSepK=T KAlg= 1 I1Cent= 0 FoldK=F
 FoFJK:  IHMeth= 1 ICntrl=     0 DoSepK=T KAlg= 1 I1Cent= 0 FoldK=F
 FoFJK:  IHMeth= 1 ICntrl=     0 DoSepK=T KAlg= 1 I1Cent= 0 FoldK=F
 FoFJK:  IHMeth= 1 ICntrl=     0 DoSepK=T KAlg= 1 I1Cent= 0 FoldK=F
 FoFJK:  IHMeth= 1 ICntrl=     0 DoSepK=T KAlg= 1 I1Cent= 0 FoldK=F
 FoFJK:  IHMeth= 1 ICntrl=     0 DoSepK=T KAlg= 1 I1Cent= 0 FoldK=F
 FoFJK:  IHMeth= 1 ICntrl=     0 DoSepK=T KAlg= 1 I1Cent= 0 FoldK=F
 Rare condition: small coef for last iteration:  0.000D+00
 FoFJK:  IHMeth= 1 ICntrl=     0 DoSepK=T KAlg= 1 I1Cent= 0 FoldK=F
 FoFJK:  IHMeth= 1 ICntrl=     0 DoSepK=T KAlg= 1 I1Cent= 0 FoldK=F
 Rare condition: small coef for last iteration:  0.000D+00
 FoFJK:  IHMeth= 1 ICntrl=     0 DoSepK=T KAlg= 1 I1Cent= 0 FoldK=F
 FoFJK:  IHMeth= 1 ICntrl=     0 DoSepK=T KAlg= 1 I1Cent= 0 FoldK=F
 FoFJK:  IHMeth= 1 ICntrl=     0 DoSepK=T KAlg= 1 I1Cent= 0 FoldK=F
 FoFJK:  IHMeth= 1 ICntrl=     0 DoSepK=T KAlg= 1 I1Cent= 0 FoldK=F
 FoFJK:  IHMeth= 1 ICntrl=     0 DoSepK=T KAlg= 1 I1Cent= 0 FoldK=F
 FoFJK:  IHMeth= 1 ICntrl=     0 DoSepK=T KAlg= 1 I1Cent= 0 FoldK=F
 FoFJK:  IHMeth= 1 ICntrl=     0 DoSepK=T KAlg= 1 I1Cent= 0 FoldK=F
 FoFJK:  IHMeth= 1 ICntrl=     0 DoSepK=T KAlg= 1 I1Cent= 0 FoldK=F
 Restarting incremental Fock formation.
 FoFJK:  IHMeth= 1 ICntrl=     0 DoSepK=T KAlg= 1 I1Cent= 0 FoldK=F
 FoFJK:  IHMeth= 1 ICntrl=     0 DoSepK=T KAlg= 1 I1Cent= 0 FoldK=F
 FoFJK:  IHMeth= 1 ICntrl=     0 DoSepK=T KAlg= 1 I1Cent= 0 FoldK=F
 FoFJK:  IHMeth= 1 ICntrl=     0 DoSepK=T KAlg= 1 I1Cent= 0 FoldK=F
 SCF Done:  E(RLC-B+HF-LYP) =  -94.2554682304     A.U. after   31 cycles
             Convg  =    0.5075D-08             -V/T =  2.0197
 ExpMin= 1.61D-01 ExpMax= 4.17D+03 ExpMxC= 6.27D+02 IAcc=1 IRadAn=         1 AccDes= 0.00D+00
 HarFok:  IExCor=  205 AccDes= 0.00D+00 IRadAn=         1 IDoV=-2
 ScaDFX=  1.000000  1.000000  1.000000  1.000000
 Range of M.O.s used for correlation:     3    38
 NBasis=    38 NAE=     8 NBE=     8 NFC=     2 NFV=     0
 NROrb=     36 NOA=     6 NOB=     6 NVA=    30 NVB=    30
     8 initial guesses have been made.
 Convergence on wavefunction:    0.000001000000000
 Iteration     1 Dimension     8 NMult     8
 CISAX will form     8 AO SS matrices at one time.
 FoFJK:  IHMeth= 1 ICntrl=     0 DoSepK=T KAlg= 1 I1Cent= 0 FoldK=F
 FoFJK:  IHMeth= 1 ICntrl=     0 DoSepK=T KAlg= 1 I1Cent= 0 FoldK=F
 Iteration     2 Dimension    12 NMult    12
 FoFJK:  IHMeth= 1 ICntrl=     0 DoSepK=T KAlg= 1 I1Cent= 0 FoldK=F
 FoFJK:  IHMeth= 1 ICntrl=     0 DoSepK=T KAlg= 1 I1Cent= 0 FoldK=F
 Iteration     3 Dimension    16 NMult    16
 FoFJK:  IHMeth= 1 ICntrl=     0 DoSepK=T KAlg= 1 I1Cent= 0 FoldK=F
 FoFJK:  IHMeth= 1 ICntrl=     0 DoSepK=T KAlg= 1 I1Cent= 0 FoldK=F
 Iteration     4 Dimension    20 NMult    20
 FoFJK:  IHMeth= 1 ICntrl=     0 DoSepK=T KAlg= 1 I1Cent= 0 FoldK=F
 FoFJK:  IHMeth= 1 ICntrl=     0 DoSepK=T KAlg= 1 I1Cent= 0 FoldK=F
 Iteration     5 Dimension    24 NMult    24
 FoFJK:  IHMeth= 1 ICntrl=     0 DoSepK=T KAlg= 1 I1Cent= 0 FoldK=F
 FoFJK:  IHMeth= 1 ICntrl=     0 DoSepK=T KAlg= 1 I1Cent= 0 FoldK=F
 Iteration     6 Dimension    28 NMult    28
 FoFJK:  IHMeth= 1 ICntrl=     0 DoSepK=T KAlg= 1 I1Cent= 0 FoldK=F
 FoFJK:  IHMeth= 1 ICntrl=     0 DoSepK=T KAlg= 1 I1Cent= 0 FoldK=F
 Iteration     7 Dimension    32 NMult    32
 FoFJK:  IHMeth= 1 ICntrl=     0 DoSepK=T KAlg= 1 I1Cent= 0 FoldK=F
 FoFJK:  IHMeth= 1 ICntrl=     0 DoSepK=T KAlg= 1 I1Cent= 0 FoldK=F
 Iteration     8 Dimension    36 NMult    36
 FoFJK:  IHMeth= 1 ICntrl=     0 DoSepK=T KAlg= 1 I1Cent= 0 FoldK=F
 FoFJK:  IHMeth= 1 ICntrl=     0 DoSepK=T KAlg= 1 I1Cent= 0 FoldK=F
 Iteration     9 Dimension    40 NMult    40
 FoFJK:  IHMeth= 1 ICntrl=     0 DoSepK=T KAlg= 1 I1Cent= 0 FoldK=F
 FoFJK:  IHMeth= 1 ICntrl=     0 DoSepK=T KAlg= 1 I1Cent= 0 FoldK=F
 Iteration    10 Dimension    44 NMult    44
 FoFJK:  IHMeth= 1 ICntrl=     0 DoSepK=T KAlg= 1 I1Cent= 0 FoldK=F
 FoFJK:  IHMeth= 1 ICntrl=     0 DoSepK=T KAlg= 1 I1Cent= 0 FoldK=F
 Iteration    11 Dimension    48 NMult    48
 FoFJK:  IHMeth= 1 ICntrl=     0 DoSepK=T KAlg= 1 I1Cent= 0 FoldK=F
 FoFJK:  IHMeth= 1 ICntrl=     0 DoSepK=T KAlg= 1 I1Cent= 0 FoldK=F
 Iteration    12 Dimension    50 NMult    50
 FoFJK:  IHMeth= 1 ICntrl=     0 DoSepK=T KAlg= 1 I1Cent= 0 FoldK=F
 FoFJK:  IHMeth= 1 ICntrl=     0 DoSepK=T KAlg= 1 I1Cent= 0 FoldK=F
 Iteration    13 Dimension    52 NMult    52
 FoFJK:  IHMeth= 1 ICntrl=     0 DoSepK=T KAlg= 1 I1Cent= 0 FoldK=F
 FoFJK:  IHMeth= 1 ICntrl=     0 DoSepK=T KAlg= 1 I1Cent= 0 FoldK=F
 Iteration    14 Dimension    54 NMult    54
 FoFJK:  IHMeth= 1 ICntrl=     0 DoSepK=T KAlg= 1 I1Cent= 0 FoldK=F
 FoFJK:  IHMeth= 1 ICntrl=     0 DoSepK=T KAlg= 1 I1Cent= 0 FoldK=F
 Iteration    15 Dimension    56 NMult    56
 FoFJK:  IHMeth= 1 ICntrl=     0 DoSepK=T KAlg= 1 I1Cent= 0 FoldK=F
 FoFJK:  IHMeth= 1 ICntrl=     0 DoSepK=T KAlg= 1 I1Cent= 0 FoldK=F
 Iteration    16 Dimension    58 NMult    58
 FoFJK:  IHMeth= 1 ICntrl=     0 DoSepK=T KAlg= 1 I1Cent= 0 FoldK=F
 FoFJK:  IHMeth= 1 ICntrl=     0 DoSepK=T KAlg= 1 I1Cent= 0 FoldK=F
 Iteration    17 Dimension    60 NMult    60
 FoFJK:  IHMeth= 1 ICntrl=     0 DoSepK=T KAlg= 1 I1Cent= 0 FoldK=F
 FoFJK:  IHMeth= 1 ICntrl=     0 DoSepK=T KAlg= 1 I1Cent= 0 FoldK=F
 Iteration    18 Dimension    62 NMult    62
 FoFJK:  IHMeth= 1 ICntrl=     0 DoSepK=T KAlg= 1 I1Cent= 0 FoldK=F
 FoFJK:  IHMeth= 1 ICntrl=     0 DoSepK=T KAlg= 1 I1Cent= 0 FoldK=F
 Iteration    19 Dimension    64 NMult    64
 FoFJK:  IHMeth= 1 ICntrl=     0 DoSepK=T KAlg= 1 I1Cent= 0 FoldK=F
 FoFJK:  IHMeth= 1 ICntrl=     0 DoSepK=T KAlg= 1 I1Cent= 0 FoldK=F
 Iteration    20 Dimension    66 NMult    66
 FoFJK:  IHMeth= 1 ICntrl=     0 DoSepK=T KAlg= 1 I1Cent= 0 FoldK=F
 FoFJK:  IHMeth= 1 ICntrl=     0 DoSepK=T KAlg= 1 I1Cent= 0 FoldK=F
 Iteration    21 Dimension    68 NMult    68
 FoFJK:  IHMeth= 1 ICntrl=     0 DoSepK=T KAlg= 1 I1Cent= 0 FoldK=F
 FoFJK:  IHMeth= 1 ICntrl=     0 DoSepK=T KAlg= 1 I1Cent= 0 FoldK=F
 Iteration    22 Dimension    70 NMult    70
 FoFJK:  IHMeth= 1 ICntrl=     0 DoSepK=T KAlg= 1 I1Cent= 0 FoldK=F
 FoFJK:  IHMeth= 1 ICntrl=     0 DoSepK=T KAlg= 1 I1Cent= 0 FoldK=F
 Iteration    23 Dimension    72 NMult    72
 FoFJK:  IHMeth= 1 ICntrl=     0 DoSepK=T KAlg= 1 I1Cent= 0 FoldK=F
 FoFJK:  IHMeth= 1 ICntrl=     0 DoSepK=T KAlg= 1 I1Cent= 0 FoldK=F
 ***********************************************************************
 Excited states from <AA,BB:AA,BB> singles matrix:
 ***********************************************************************
 
 Ground to excited state transition electric dipole moments (Au):
       state          X           Y           Z        Dip. S.      Osc.
         1        -0.0439     -0.1161      0.0804      0.0219     -0.0003
         2        -0.0427     -0.0956      0.0648      0.0152      0.0008
 Ground to excited state transition velocity dipole moments (Au):
       state          X           Y           Z        Dip. S.      Osc.
         1        -0.0049     -0.0294      0.0192      0.0013     -0.0364
         2         0.0087      0.0091     -0.0066      0.0002      0.0018
 Ground to excited state transition magnetic dipole moments (Au):
       state          X           Y           Z
         1         0.0641      0.2598      0.4108
         2         0.1693      0.6832      1.1102
 <0|del|b> * <b|rxdel|0> + <0|del|b> * <b|delr+rdel|0>
 Rotatory Strengths (R) in cgs (10**-40 erg-esu-cm/Gauss)
       state          XX          YY          ZZ    R(velocity)
         1        -2.7134   -105.0157    109.9560      0.7423
 Total R(velocity) tensor for State=          1
                 1             2             3 
      1  -0.271335D+01 -0.149736D+02 -0.236395D+02
      2  -0.262868D+02 -0.105016D+03 -0.167644D+03
      3   0.169789D+02  0.689225D+02  0.109956D+03
         2        -5.0978    -30.2195     38.8352      1.1726
 Total R(velocity) tensor for State=          2
                 1             2             3 
      1  -0.509780D+01 -0.271673D+02 -0.442758D+02
      2  -0.788224D+01 -0.302195D+02 -0.521835D+02
      3   0.571418D+01  0.226353D+02  0.388352D+02
 1/2[<0|r|b>*<b|rxdel|0> + (<0|rxdel|b>*<b|r|0>)*]
 Rotatory Strengths (R) in cgs (10**-40 erg-esu-cm/Gauss)
       state          XX          YY          ZZ     R(length)     R(au)
         1         1.9906     21.3243    -23.3579     -0.0143      0.0000
         2         5.1063     46.2070    -50.8680      0.1484      0.0003
  1/2[<0|del|b>*<b|r|0> + (<0|r|b>*<b|del|0>)*] (Au)
       state          X           Y           Z        Dip. S.   Osc.(frdel)
         1         0.0002      0.0034      0.0015     -0.0052     -0.0034
         2        -0.0004     -0.0009     -0.0004      0.0017      0.0011
 Ground to excited state transition densities written to RWF  633

 Excitation energies and oscillator strengths:
 
 Excited state symmetry could not be determined.
 Excited State   1:      Singlet-?Sym    -0.6260 eV    -1980.72 nm  f=-0.0003  <S**2>=0.000
       3 ->  9         0.00104
       3 -> 10         0.00196
       3 -> 11        -0.00011
       3 -> 12        -0.00081
       3 -> 13         0.00002
       3 -> 14         0.00000
       3 -> 15         0.00163
       3 -> 16        -0.00003
       3 -> 17        -0.00007
       3 -> 18        -0.00014
       3 -> 19         0.00761
       3 -> 20        -0.00026
       3 -> 21        -0.00005
       3 -> 22         0.00028
       3 -> 23         0.00003
       3 -> 24         0.00016
       3 -> 25        -0.00003
       3 -> 26         0.00010
       3 -> 27         0.00000
       3 -> 28        -0.00130
       3 -> 29         0.00021
       3 -> 30         0.00000
       3 -> 31         0.00616
       3 -> 32         0.00031
       3 -> 33         0.00010
       3 -> 34         0.00003
       3 -> 35         0.00021
       3 -> 36         0.00000
       3 -> 37         0.00000
       3 -> 38        -0.00001
       4 ->  9         0.00043
       4 -> 10         0.00883
       4 -> 11         0.00040
       4 -> 12         0.00019
       4 -> 13         0.00001
       4 -> 14         0.00000
       4 -> 15        -0.00400
       4 -> 16         0.00006
       4 -> 17         0.00011
       4 -> 18        -0.00007
       4 -> 19        -0.00195
       4 -> 20         0.00003
       4 -> 21         0.00000
       4 -> 22        -0.00009
       4 -> 23         0.00000
       4 -> 24        -0.00014
       4 -> 25         0.00000
       4 -> 26         0.00003
       4 -> 27         0.00000
       4 -> 28         0.00027
       4 -> 29         0.00002
       4 -> 30         0.00000
       4 -> 31         0.00030
       4 -> 32         0.00002
       4 -> 33         0.00001
       4 -> 34         0.00001
       4 -> 35        -0.00005
       4 -> 36         0.00000
       4 -> 37         0.00000
       4 -> 38         0.00002
       5 ->  9         0.00010
       5 -> 10         0.00001
       5 -> 11        -0.00002
       5 -> 12         0.00001
       5 -> 13         0.00077
       5 -> 14         0.00018
       5 -> 15         0.00000
       5 -> 16        -0.00026
       5 -> 17         0.00002
       5 -> 18         0.00004
       5 -> 19         0.00000
       5 -> 20         0.00000
       5 -> 21        -0.00009
       5 -> 22         0.00000
       5 -> 23        -0.00006
       5 -> 24         0.00000
       5 -> 25         0.00008
       5 -> 26         0.00001
       5 -> 27        -0.00250
       5 -> 28         0.00000
       5 -> 29         0.00000
       5 -> 30         0.00130
       5 -> 31         0.00000
       5 -> 32        -0.00001
       5 -> 33         0.00000
       5 -> 34         0.00004
       5 -> 35        -0.00001
       5 -> 36        -0.00004
       5 -> 37         0.00000
       5 -> 38         0.00000
       6 ->  9        -0.00004
       6 -> 10         0.00001
       6 -> 11         0.00000
       6 -> 12        -0.00003
       6 -> 13         0.00001
       6 -> 14         0.00028
       6 -> 15         0.00000
       6 -> 16         0.00035
       6 -> 17         0.00000
       6 -> 18         0.00000
       6 -> 19         0.00000
       6 -> 20         0.00000
       6 -> 21         0.00000
       6 -> 22         0.00000
       6 -> 23        -0.00008
       6 -> 24         0.00000
       6 -> 25         0.00022
       6 -> 26         0.00000
       6 -> 27         0.00037
       6 -> 28         0.00000
       6 -> 29         0.00000
       6 -> 30         0.01324
       6 -> 31         0.00000
       6 -> 32         0.00000
       6 -> 33         0.00000
       6 -> 34         0.00001
       6 -> 35         0.00000
       6 -> 36        -0.00044
       6 -> 37         0.00000
       6 -> 38         0.00000
       7 ->  9         0.01992
       7 -> 10        -0.15936
       7 -> 11        -0.00128
       7 -> 12         0.00241
       7 -> 13         0.00018
       7 -> 14        -0.00003
       7 -> 15         0.00128
       7 -> 16         0.00018
       7 -> 17         0.00005
       7 -> 18         0.00088
       7 -> 19        -0.00495
       7 -> 20         0.00064
       7 -> 21         0.00000
       7 -> 22        -0.00005
       7 -> 23         0.00000
       7 -> 24        -0.00052
       7 -> 25        -0.00003
       7 -> 26         0.00020
       7 -> 27         0.00000
       7 -> 28        -0.00046
       7 -> 29         0.00051
       7 -> 30         0.00000
       7 -> 31         0.01198
       7 -> 32         0.00038
       7 -> 33         0.00001
       7 -> 34         0.00004
       7 -> 35        -0.00027
       7 -> 36         0.00000
       7 -> 37        -0.00001
       7 -> 38        -0.00002
       8 ->  9        -0.77646
       8 -> 10         0.00130
       8 -> 11         0.01881
       8 -> 12        -0.07111
       8 -> 13         0.00006
       8 -> 14         0.00001
       8 -> 15        -0.00001
       8 -> 16        -0.00002
       8 -> 17        -0.00343
       8 -> 18        -0.02244
       8 -> 19        -0.00119
       8 -> 20        -0.01486
       8 -> 21         0.00006
       8 -> 22         0.00711
       8 -> 23        -0.00001
       8 -> 24         0.01613
       8 -> 25         0.00005
       8 -> 26        -0.00921
       8 -> 27         0.00000
       8 -> 28         0.00015
       8 -> 29         0.00019
       8 -> 30         0.00000
       8 -> 31        -0.00104
       8 -> 32         0.00838
       8 -> 33         0.00498
       8 -> 34         0.00002
       8 -> 35         0.01534
       8 -> 36         0.00000
       8 -> 37         0.00041
       8 -> 38         0.00025
       3 <-  9         0.00079
       3 <- 10         0.00645
       3 <- 11        -0.00012
       3 <- 12        -0.00084
       3 <- 13         0.00000
       3 <- 14        -0.00001
       3 <- 15         0.00128
       3 <- 16        -0.00004
       3 <- 17        -0.00006
       3 <- 18        -0.00012
       3 <- 19         0.00688
       3 <- 20        -0.00026
       3 <- 21        -0.00004
       3 <- 22         0.00029
       3 <- 23         0.00003
       3 <- 24         0.00018
       3 <- 25        -0.00002
       3 <- 26         0.00010
       3 <- 27         0.00000
       3 <- 28        -0.00061
       3 <- 29         0.00018
       3 <- 30         0.00000
       3 <- 31         0.00626
       3 <- 32         0.00031
       3 <- 33         0.00010
       3 <- 34         0.00002
       3 <- 35         0.00020
       3 <- 36         0.00000
       3 <- 37         0.00000
       3 <- 38        -0.00001
       4 <-  9         0.00036
       4 <- 10         0.00542
       4 <- 11         0.00037
       4 <- 12         0.00020
       4 <- 13         0.00002
       4 <- 14         0.00001
       4 <- 15        -0.00381
       4 <- 16         0.00006
       4 <- 17         0.00010
       4 <- 18        -0.00007
       4 <- 19        -0.00193
       4 <- 20         0.00000
       4 <- 21         0.00001
       4 <- 22        -0.00009
       4 <- 23         0.00000
       4 <- 24        -0.00014
       4 <- 25        -0.00001
       4 <- 26         0.00002
       4 <- 27         0.00000
       4 <- 28         0.00016
       4 <- 29         0.00002
       4 <- 30         0.00000
       4 <- 31         0.00106
       4 <- 32         0.00003
       4 <- 33         0.00001
       4 <- 34         0.00000
       4 <- 35        -0.00005
       4 <- 36         0.00000
       4 <- 37         0.00000
       4 <- 38         0.00001
       5 <-  9         0.00004
       5 <- 10         0.00001
       5 <- 11        -0.00002
       5 <- 12         0.00000
       5 <- 13         0.00075
       5 <- 14         0.00016
       5 <- 15         0.00000
       5 <- 16        -0.00023
       5 <- 17         0.00003
       5 <- 18         0.00003
       5 <- 19         0.00000
       5 <- 20         0.00001
       5 <- 21        -0.00011
       5 <- 22         0.00000
       5 <- 23        -0.00006
       5 <- 24         0.00000
       5 <- 25         0.00007
       5 <- 26         0.00000
       5 <- 27        -0.00229
       5 <- 28         0.00000
       5 <- 29         0.00000
       5 <- 30         0.00138
       5 <- 31         0.00000
       5 <- 32        -0.00001
       5 <- 33         0.00000
       5 <- 34         0.00005
       5 <- 35        -0.00001
       5 <- 36        -0.00004
       5 <- 37         0.00000
       5 <- 38         0.00000
       6 <-  9        -0.00006
       6 <- 10         0.00001
       6 <- 11        -0.00001
       6 <- 12        -0.00002
       6 <- 13         0.00001
       6 <- 14         0.00025
       6 <- 15         0.00000
       6 <- 16         0.00033
       6 <- 17         0.00000
       6 <- 18         0.00000
       6 <- 19         0.00000
       6 <- 20         0.00000
       6 <- 21         0.00001
       6 <- 22         0.00001
       6 <- 23        -0.00011
       6 <- 24        -0.00001
       6 <- 25         0.00021
       6 <- 26         0.00000
       6 <- 27         0.00030
       6 <- 28         0.00000
       6 <- 29         0.00000
       6 <- 30         0.01340
       6 <- 31         0.00000
       6 <- 32         0.00000
       6 <- 33         0.00000
       6 <- 34         0.00001
       6 <- 35         0.00001
       6 <- 36        -0.00043
       6 <- 37         0.00000
       6 <- 38         0.00000
       7 <-  9         0.01062
       7 <- 10        -0.07679
       7 <- 11        -0.00088
       7 <- 12         0.00164
       7 <- 13         0.00018
       7 <- 14        -0.00001
       7 <- 15        -0.00438
       7 <- 16         0.00023
       7 <- 17         0.00004
       7 <- 18         0.00063
       7 <- 19        -0.00924
       7 <- 20         0.00057
       7 <- 21         0.00006
       7 <- 22        -0.00008
       7 <- 23        -0.00001
       7 <- 24        -0.00034
       7 <- 25        -0.00002
       7 <- 26         0.00010
       7 <- 27         0.00000
       7 <- 28         0.00005
       7 <- 29         0.00044
       7 <- 30         0.00000
       7 <- 31         0.01396
       7 <- 32         0.00043
       7 <- 33         0.00005
       7 <- 34         0.00005
       7 <- 35        -0.00028
       7 <- 36         0.00000
       7 <- 37        -0.00002
       7 <- 38        -0.00001
       8 <-  9        -0.35645
       8 <- 10         0.00343
       8 <- 11         0.00592
       8 <- 12        -0.04192
       8 <- 13         0.00003
       8 <- 14         0.00000
       8 <- 15        -0.00005
       8 <- 16         0.00004
       8 <- 17         0.00176
       8 <- 18        -0.00727
       8 <- 19        -0.00075
       8 <- 20        -0.00674
       8 <- 21         0.00003
       8 <- 22         0.00953
       8 <- 23         0.00000
       8 <- 24         0.00739
       8 <- 25         0.00004
       8 <- 26        -0.00381
       8 <- 27         0.00000
       8 <- 28         0.00020
       8 <- 29         0.00267
       8 <- 30        -0.00001
       8 <- 31        -0.00092
       8 <- 32         0.00826
       8 <- 33         0.00402
       8 <- 34         0.00002
       8 <- 35         0.01495
       8 <- 36         0.00000
       8 <- 37         0.00011
       8 <- 38         0.00007
 This state for optimization and/or second-order correction.
 Copying the excited state density for this state as the 1-particle RhoCI density.
 
 Excited state symmetry could not be determined.
 Excited State   2:      Singlet-?Sym    2.0702 eV  598.91 nm  f=0.0008  <S**2>=0.000
       3 ->  9         0.00176
       3 -> 10         0.02383
       3 -> 11         0.00052
       3 -> 12         0.00159
       3 -> 13         0.00000
       3 -> 14         0.00002
       3 -> 15        -0.00234
       3 -> 16         0.00000
       3 -> 17         0.00039
       3 -> 18         0.00093
       3 -> 19         0.00060
       3 -> 20         0.00045
       3 -> 21        -0.00001
       3 -> 22        -0.00066
       3 -> 23         0.00001
       3 -> 24        -0.00015
       3 -> 25        -0.00001
       3 -> 26        -0.00036
       3 -> 27         0.00000
       3 -> 28         0.00021
       3 -> 29        -0.00034
       3 -> 30         0.00000
       3 -> 31         0.00085
       3 -> 32        -0.00025
       3 -> 33        -0.00031
       3 -> 34         0.00000
       3 -> 35        -0.00047
       3 -> 36         0.00000
       3 -> 37         0.00011
       3 -> 38         0.00004
       4 ->  9        -0.00206
       4 -> 10        -0.02828
       4 -> 11         0.00051
       4 -> 12        -0.00050
       4 -> 13         0.00001
       4 -> 14        -0.00001
       4 -> 15         0.00350
       4 -> 16        -0.00001
       4 -> 17        -0.00056
       4 -> 18        -0.00147
       4 -> 19         0.00011
       4 -> 20        -0.00043
       4 -> 21         0.00000
       4 -> 22        -0.00008
       4 -> 23         0.00000
       4 -> 24        -0.00015
       4 -> 25         0.00000
       4 -> 26         0.00024
       4 -> 27         0.00000
       4 -> 28        -0.00120
       4 -> 29         0.00019
       4 -> 30         0.00000
       4 -> 31        -0.00013
       4 -> 32        -0.00001
       4 -> 33         0.00020
       4 -> 34         0.00000
       4 -> 35         0.00009
       4 -> 36         0.00000
       4 -> 37        -0.00002
       4 -> 38         0.00013
       5 ->  9         0.00002
       5 -> 10         0.00017
       5 -> 11         0.00001
       5 -> 12         0.00002
       5 -> 13         0.00233
       5 -> 14         0.00037
       5 -> 15        -0.00002
       5 -> 16        -0.00107
       5 -> 17         0.00000
       5 -> 18         0.00000
       5 -> 19         0.00000
       5 -> 20        -0.00001
       5 -> 21        -0.00037
       5 -> 22        -0.00001
       5 -> 23        -0.00025
       5 -> 24         0.00000
       5 -> 25         0.00019
       5 -> 26         0.00000
       5 -> 27         0.00395
       5 -> 28         0.00000
       5 -> 29         0.00000
       5 -> 30         0.00016
       5 -> 31         0.00000
       5 -> 32         0.00000
       5 -> 33        -0.00001
       5 -> 34         0.00069
       5 -> 35         0.00000
       5 -> 36         0.00005
       5 -> 37         0.00000
       5 -> 38         0.00000
       6 ->  9        -0.00003
       6 -> 10        -0.00001
       6 -> 11         0.00002
       6 -> 12         0.00007
       6 -> 13        -0.00001
       6 -> 14        -0.00131
       6 -> 15         0.00000
       6 -> 16        -0.00014
       6 -> 17        -0.00001
       6 -> 18        -0.00001
       6 -> 19         0.00000
       6 -> 20        -0.00001
       6 -> 21         0.00010
       6 -> 22        -0.00003
       6 -> 23        -0.00035
       6 -> 24         0.00003
       6 -> 25        -0.00068
       6 -> 26        -0.00001
       6 -> 27        -0.00050
       6 -> 28         0.00000
       6 -> 29         0.00000
       6 -> 30         0.00174
       6 -> 31         0.00000
       6 -> 32         0.00000
       6 -> 33         0.00000
       6 -> 34        -0.00005
       6 -> 35        -0.00001
       6 -> 36         0.00071
       6 -> 37         0.00000
       6 -> 38         0.00000
       7 ->  9        -0.07821
       7 -> 10         0.62519
       7 -> 11         0.00302
       7 -> 12        -0.00654
       7 -> 13        -0.00004
       7 -> 14         0.00012
       7 -> 15        -0.02883
       7 -> 16         0.00008
       7 -> 17         0.00008
       7 -> 18        -0.00069
       7 -> 19         0.00488
       7 -> 20        -0.00074
       7 -> 21        -0.00003
       7 -> 22         0.00004
       7 -> 23         0.00000
       7 -> 24         0.00100
       7 -> 25         0.00001
       7 -> 26         0.00013
       7 -> 27         0.00001
       7 -> 28        -0.00039
       7 -> 29         0.00046
       7 -> 30         0.00000
       7 -> 31         0.00196
       7 -> 32        -0.00028
       7 -> 33        -0.00032
       7 -> 34         0.00000
       7 -> 35        -0.00011
       7 -> 36         0.00001
       7 -> 37        -0.00002
       7 -> 38         0.00006
       8 ->  9        -0.12787
       8 -> 10         0.29778
       8 -> 11         0.00517
       8 -> 12        -0.01287
       8 -> 13         0.00001
       8 -> 14        -0.00004
       8 -> 15        -0.00351
       8 -> 16        -0.00002
       8 -> 17        -0.00231
       8 -> 18        -0.00497
       8 -> 19         0.00317
       8 -> 20        -0.00366
       8 -> 21        -0.00001
       8 -> 22         0.00126
       8 -> 23         0.00000
       8 -> 24         0.00340
       8 -> 25         0.00004
       8 -> 26        -0.00331
       8 -> 27         0.00001
       8 -> 28         0.00302
       8 -> 29        -0.00007
       8 -> 30         0.00002
       8 -> 31         0.00065
       8 -> 32         0.00087
       8 -> 33         0.00067
       8 -> 34         0.00000
       8 -> 35         0.00197
       8 -> 36         0.00000
       8 -> 37         0.00013
       8 -> 38         0.00000
       3 <-  9         0.00159
       3 <- 10        -0.00423
       3 <- 11         0.00011
       3 <- 12         0.00150
       3 <- 13         0.00000
       3 <- 14         0.00001
       3 <- 15         0.00040
       3 <- 16         0.00000
       3 <- 17         0.00005
       3 <- 18         0.00028
       3 <- 19        -0.00028
       3 <- 20         0.00041
       3 <- 21         0.00000
       3 <- 22        -0.00074
       3 <- 23         0.00000
       3 <- 24        -0.00052
       3 <- 25        -0.00002
       3 <- 26        -0.00007
       3 <- 27         0.00000
       3 <- 28        -0.00079
       3 <- 29        -0.00005
       3 <- 30         0.00000
       3 <- 31         0.00047
       3 <- 32        -0.00052
       3 <- 33        -0.00026
       3 <- 34         0.00000
       3 <- 35        -0.00051
       3 <- 36         0.00000
       3 <- 37         0.00011
       3 <- 38         0.00002
       4 <-  9        -0.00024
       4 <- 10        -0.00929
       4 <- 11         0.00032
       4 <- 12        -0.00016
       4 <- 13         0.00000
       4 <- 14        -0.00002
       4 <- 15         0.00202
       4 <- 16        -0.00001
       4 <- 17        -0.00021
       4 <- 18        -0.00079
       4 <- 19        -0.00005
       4 <- 20        -0.00007
       4 <- 21         0.00000
       4 <- 22        -0.00026
       4 <- 23         0.00000
       4 <- 24        -0.00023
       4 <- 25         0.00001
       4 <- 26         0.00063
       4 <- 27         0.00000
       4 <- 28        -0.00165
       4 <- 29        -0.00001
       4 <- 30        -0.00001
       4 <- 31        -0.00050
       4 <- 32        -0.00024
       4 <- 33         0.00007
       4 <- 34         0.00000
       4 <- 35        -0.00013
       4 <- 36         0.00000
       4 <- 37        -0.00001
       4 <- 38         0.00014
       5 <-  9        -0.00001
       5 <- 10        -0.00002
       5 <- 11         0.00001
       5 <- 12         0.00000
       5 <- 13         0.00162
       5 <- 14         0.00029
       5 <- 15         0.00000
       5 <- 16        -0.00091
       5 <- 17         0.00002
       5 <- 18         0.00001
       5 <- 19        -0.00001
       5 <- 20         0.00000
       5 <- 21        -0.00031
       5 <- 22         0.00000
       5 <- 23        -0.00021
       5 <- 24         0.00000
       5 <- 25         0.00019
       5 <- 26         0.00000
       5 <- 27         0.00238
       5 <- 28         0.00000
       5 <- 29         0.00000
       5 <- 30         0.00016
       5 <- 31         0.00000
       5 <- 32         0.00000
       5 <- 33         0.00000
       5 <- 34         0.00062
       5 <- 35         0.00000
       5 <- 36         0.00007
       5 <- 37         0.00000
       5 <- 38         0.00000
       6 <-  9         0.00015
       6 <- 10         0.00002
       6 <- 11        -0.00001
       6 <- 12         0.00006
       6 <- 13         0.00003
       6 <- 14        -0.00110
       6 <- 15         0.00000
       6 <- 16        -0.00018
       6 <- 17         0.00000
       6 <- 18         0.00000
       6 <- 19         0.00000
       6 <- 20         0.00000
       6 <- 21         0.00010
       6 <- 22        -0.00001
       6 <- 23        -0.00035
       6 <- 24         0.00000
       6 <- 25        -0.00060
       6 <- 26         0.00000
       6 <- 27        -0.00016
       6 <- 28         0.00000
       6 <- 29         0.00001
       6 <- 30         0.00183
       6 <- 31         0.00000
       6 <- 32         0.00001
       6 <- 33         0.00000
       6 <- 34        -0.00003
       6 <- 35        -0.00001
       6 <- 36         0.00065
       6 <- 37         0.00000
       6 <- 38         0.00000
       7 <-  9        -0.02005
       7 <- 10        -0.06120
       7 <- 11         0.00123
       7 <- 12        -0.00282
       7 <- 13         0.00002
       7 <- 14         0.00001
       7 <- 15         0.00141
       7 <- 16         0.00001
       7 <- 17        -0.00076
       7 <- 18        -0.00061
       7 <- 19        -0.00296
       7 <- 20        -0.00022
       7 <- 21         0.00002
       7 <- 22        -0.00022
       7 <- 23         0.00001
       7 <- 24        -0.00009
       7 <- 25        -0.00002
       7 <- 26         0.00091
       7 <- 27         0.00000
       7 <- 28        -0.00397
       7 <- 29         0.00049
       7 <- 30        -0.00001
       7 <- 31         0.00133
       7 <- 32        -0.00093
       7 <- 33        -0.00056
       7 <- 34         0.00000
       7 <- 35        -0.00024
       7 <- 36         0.00000
       7 <- 37         0.00001
       7 <- 38         0.00004
       8 <-  9         0.01341
       8 <- 10         0.00974
       8 <- 11        -0.00359
       8 <- 12         0.00483
       8 <- 13        -0.00001
       8 <- 14         0.00000
       8 <- 15        -0.00024
       8 <- 16        -0.00002
       8 <- 17        -0.00214
       8 <- 18        -0.00112
       8 <- 19         0.00048
       8 <- 20        -0.00058
       8 <- 21         0.00001
       8 <- 22         0.00132
       8 <- 23        -0.00001
       8 <- 24        -0.00085
       8 <- 25         0.00000
       8 <- 26        -0.00090
       8 <- 27         0.00000
       8 <- 28         0.00013
       8 <- 29         0.00094
       8 <- 30         0.00002
       8 <- 31         0.00039
       8 <- 32         0.00098
       8 <- 33         0.00088
       8 <- 34         0.00001
       8 <- 35         0.00176
       8 <- 36         0.00000
       8 <- 37        -0.00002
       8 <- 38         0.00003
 SavETr:  write IOETrn=   770 NScale= 10 NData=  16 NLR=1 LETran=      46.
 FoFJK:  IHMeth= 1 ICntrl=     0 DoSepK=T KAlg= 1 I1Cent= 0 FoldK=F
 FoFJK:  IHMeth= 1 ICntrl=     0 DoSepK=T KAlg= 1 I1Cent= 0 FoldK=F
          IDoAtm=111111
          Differentiating once with respect to electric field.
                with respect to dipole field.
          Differentiating once with respect to nuclear coordinates.
          There are     1 degrees of freedom in the 1st order CPHF.  IDoFFX=0.
 FoFJK:  IHMeth= 1 ICntrl=     0 DoSepK=T KAlg= 1 I1Cent= 0 FoldK=F
 LinEq1:  Iter=  0 NonCon=     1 RMS=1.19D-01 Max=1.59D+00
 AX will form     1 AO Fock derivatives at one time.
 FoFJK:  IHMeth= 1 ICntrl=     0 DoSepK=T KAlg= 1 I1Cent= 0 FoldK=F
 LinEq1:  Iter=  1 NonCon=     1 RMS=3.94D-02 Max=3.64D-01
 FoFJK:  IHMeth= 1 ICntrl=     0 DoSepK=T KAlg= 1 I1Cent= 0 FoldK=F
 LinEq1:  Iter=  2 NonCon=     1 RMS=1.88D-02 Max=1.68D-01
 FoFJK:  IHMeth= 1 ICntrl=     0 DoSepK=T KAlg= 1 I1Cent= 0 FoldK=F
 LinEq1:  Iter=  3 NonCon=     1 RMS=8.29D-03 Max=6.43D-02
 FoFJK:  IHMeth= 1 ICntrl=     0 DoSepK=T KAlg= 1 I1Cent= 0 FoldK=F
 LinEq1:  Iter=  4 NonCon=     1 RMS=2.24D-03 Max=1.93D-02
 FoFJK:  IHMeth= 1 ICntrl=     0 DoSepK=T KAlg= 1 I1Cent= 0 FoldK=F
 LinEq1:  Iter=  5 NonCon=     1 RMS=5.68D-04 Max=7.06D-03
 FoFJK:  IHMeth= 1 ICntrl=     0 DoSepK=T KAlg= 1 I1Cent= 0 FoldK=F
 LinEq1:  Iter=  6 NonCon=     1 RMS=2.30D-04 Max=1.92D-03
 FoFJK:  IHMeth= 1 ICntrl=     0 DoSepK=T KAlg= 1 I1Cent= 0 FoldK=F
 LinEq1:  Iter=  7 NonCon=     1 RMS=3.33D-05 Max=2.05D-04
 FoFJK:  IHMeth= 1 ICntrl=     0 DoSepK=T KAlg= 1 I1Cent= 0 FoldK=F
 LinEq1:  Iter=  8 NonCon=     1 RMS=7.71D-06 Max=9.01D-05
 FoFJK:  IHMeth= 1 ICntrl=     0 DoSepK=T KAlg= 1 I1Cent= 0 FoldK=F
 LinEq1:  Iter=  9 NonCon=     1 RMS=2.22D-06 Max=1.63D-05
 FoFJK:  IHMeth= 1 ICntrl=     0 DoSepK=T KAlg= 1 I1Cent= 0 FoldK=F
 LinEq1:  Iter= 10 NonCon=     1 RMS=3.47D-07 Max=2.68D-06
 FoFJK:  IHMeth= 1 ICntrl=     0 DoSepK=T KAlg= 1 I1Cent= 0 FoldK=F
 LinEq1:  Iter= 11 NonCon=     1 RMS=5.86D-08 Max=3.27D-07
 FoFJK:  IHMeth= 1 ICntrl=     0 DoSepK=T KAlg= 1 I1Cent= 0 FoldK=F
 LinEq1:  Iter= 12 NonCon=     1 RMS=1.19D-08 Max=9.80D-08
 FoFJK:  IHMeth= 1 ICntrl=     0 DoSepK=T KAlg= 1 I1Cent= 0 FoldK=F
 LinEq1:  Iter= 13 NonCon=     1 RMS=1.91D-09 Max=1.12D-08
 FoFJK:  IHMeth= 1 ICntrl=     0 DoSepK=T KAlg= 1 I1Cent= 0 FoldK=F
 LinEq1:  Iter= 14 NonCon=     1 RMS=3.25D-10 Max=2.19D-09
 FoFJK:  IHMeth= 1 ICntrl=     0 DoSepK=T KAlg= 1 I1Cent= 0 FoldK=F
 LinEq1:  Iter= 15 NonCon=     0 RMS=4.81D-11 Max=5.07D-10
 Linear equations converged to 1.000D-10 1.000D-09 after    15 iterations.
 FoFJK:  IHMeth= 1 ICntrl=     0 DoSepK=T KAlg= 1 I1Cent= 0 FoldK=F
 End of Minotr Frequency-dependent properties file   721 does not exist.
 End of Minotr Frequency-dependent properties file   722 does not exist.

 **********************************************************************

            Population analysis using the SCF density.

 **********************************************************************

 Alpha  occ. eigenvalues --  -14.54005 -10.61914  -1.14491  -1.07549  -0.83537
 Alpha  occ. eigenvalues --   -0.78023  -0.66531  -0.58437
 Alpha virt. eigenvalues --   -0.32278  -0.30213  -0.09608  -0.02315  -0.01820
 Alpha virt. eigenvalues --    0.03202   0.37206   0.43307   0.43923   0.49173
 Alpha virt. eigenvalues --    0.63408   0.65366   0.66287   0.66665   0.69823
 Alpha virt. eigenvalues --    0.78846   0.81753   0.93767   1.49034   1.52202
 Alpha virt. eigenvalues --    1.53408   1.65014   1.66644   1.72430   1.79193
 Alpha virt. eigenvalues --    1.79793   1.95609   2.09924   3.43563   3.74920
     Molecular Orbital Coefficients:
                           1         2         3         4         5
                           O         O         O         O         O
     Eigenvalues --   -14.54005 -10.61914  -1.14491  -1.07549  -0.83537
   1 1   C  1S          0.00002   0.99181  -0.04474  -0.20381   0.00000
   2        2S          0.00011   0.05451   0.09390   0.44337   0.00001
   3        2PX         0.00008  -0.00028   0.01368  -0.09868   0.06447
   4        2PY        -0.00001   0.00002  -0.00173   0.01220   0.25870
   5        2PZ        -0.00001   0.00003  -0.00105   0.00756   0.42387
   6        3S         -0.00023  -0.00764   0.10110   0.43369   0.00001
   7        3PX        -0.00018   0.00045   0.01143  -0.04458   0.02723
   8        3PY         0.00003  -0.00005  -0.00142   0.00562   0.10932
   9        3PZ         0.00001  -0.00004  -0.00089   0.00335   0.17906
  10        4XX        -0.00002  -0.01221  -0.00104  -0.01471  -0.00728
  11        4YY         0.00005  -0.01210  -0.00364  -0.01280   0.00361
  12        4ZZ         0.00004  -0.01210  -0.00135   0.00201   0.00367
  13        4XY         0.00001   0.00002  -0.00018   0.00160  -0.01634
  14        4XZ         0.00000   0.00001   0.00031   0.00360  -0.02730
  15        4YZ        -0.00001   0.00000   0.00266   0.01679   0.00471
  16 2   N  1S          0.99206  -0.00008  -0.20455   0.04113  -0.00001
  17        2S          0.03705  -0.00013   0.43126  -0.08837   0.00002
  18        2PX        -0.00039   0.00004   0.06486  -0.04575   0.00575
  19        2PY         0.00010   0.00000  -0.00762   0.00600   0.02294
  20        2PZ         0.00000   0.00000  -0.00532   0.00335   0.03683
  21        3S          0.00567   0.00073   0.49609  -0.09891   0.00003
  22        3PX         0.00040  -0.00061   0.04079  -0.02871   0.00266
  23        3PY        -0.00007   0.00008  -0.00506   0.00392   0.01061
  24        3PZ        -0.00002   0.00004  -0.00318   0.00201   0.01707
  25        4XX        -0.00951   0.00000   0.00169   0.00133   0.00031
  26        4YY        -0.00957  -0.00019  -0.01473   0.00244  -0.00014
  27        4ZZ        -0.00954  -0.00020  -0.00005  -0.00134  -0.00017
  28        4XY        -0.00001  -0.00003  -0.00144  -0.00018   0.00071
  29        4XZ         0.00000  -0.00002   0.00248  -0.00085   0.00112
  30        4YZ         0.00004  -0.00001   0.01852  -0.00466  -0.00019
  31 3   H  1S          0.00000  -0.00016   0.02328   0.14919   0.23005
  32        2S          0.00000   0.00159   0.00649   0.04984   0.15514
  33 4   H  1S          0.00000  -0.00016   0.02329   0.14919  -0.23005
  34        2S          0.00000   0.00159   0.00649   0.04984  -0.15514
  35 5   H  1S          0.00034   0.00000   0.12719  -0.03490  -0.01862
  36        2S         -0.00080   0.00004   0.02321  -0.00784  -0.01337
  37 6   H  1S          0.00034   0.00000   0.12718  -0.03490   0.01866
  38        2S         -0.00080   0.00004   0.02321  -0.00784   0.01338
                           6         7         8         9        10
                           O         O         O         V         V
     Eigenvalues --    -0.78023  -0.66531  -0.58437  -0.32278  -0.30213
   1 1   C  1S          0.00000  -0.04368  -0.00219  -0.07462   0.00143
   2        2S          0.00001   0.08856   0.00511   0.18829  -0.00356
   3        2PX        -0.00624   0.43702   0.02007   0.37216   0.03308
   4        2PY        -0.02485  -0.05386   0.06329  -0.03989   0.51358
   5        2PZ        -0.04098  -0.03355  -0.04126  -0.03228  -0.31851
   6        3S          0.00002   0.19133   0.00854   0.28702  -0.00598
   7        3PX        -0.00224   0.28937   0.01513   0.25003   0.02913
   8        3PY        -0.00885  -0.03564   0.06483  -0.02605   0.43474
   9        3PZ        -0.01474  -0.02228  -0.04238  -0.02206  -0.26954
  10        4XX         0.00107  -0.00600  -0.00003  -0.02630  -0.00093
  11        4YY        -0.00054  -0.00528  -0.00080   0.00195   0.00221
  12        4ZZ        -0.00053  -0.01306  -0.00005  -0.00289  -0.00074
  13        4XY         0.00242  -0.00073   0.00312   0.00347  -0.01035
  14        4XZ         0.00400  -0.00166  -0.00207   0.00149   0.00654
  15        4YZ        -0.00070  -0.00879  -0.00021  -0.00604   0.00017
  16 2   N  1S          0.00000  -0.02303   0.00148   0.08346  -0.00132
  17        2S          0.00001   0.03969  -0.00354  -0.17626   0.00281
  18        2PX         0.06457  -0.31990   0.05266   0.41316  -0.01404
  19        2PY         0.26101   0.03448   0.53182  -0.06816  -0.09466
  20        2PZ         0.41390   0.02819  -0.34361  -0.02147   0.06160
  21        3S          0.00002   0.11671  -0.00531  -0.40866   0.00644
  22        3PX         0.03587  -0.22845   0.03994   0.30687  -0.01070
  23        3PY         0.14494   0.02457   0.41140  -0.05129  -0.07133
  24        3PZ         0.22984   0.02015  -0.26557  -0.01551   0.04677
  25        4XX         0.00686  -0.00170   0.00107   0.02535  -0.00124
  26        4YY        -0.00339  -0.00686  -0.00111   0.00895   0.00109
  27        4ZZ        -0.00347  -0.01171   0.00038   0.01103  -0.00057
  28        4XY         0.01552  -0.00171   0.00624  -0.00221  -0.00548
  29        4XZ         0.02508  -0.00131  -0.00423  -0.00092   0.00357
  30        4YZ        -0.00437  -0.00563  -0.00051   0.00294   0.00001
  31 3   H  1S         -0.02481  -0.09161  -0.00243  -0.06572   0.00147
  32        2S         -0.01699  -0.07764  -0.00264  -0.11985   0.00272
  33 4   H  1S          0.02483  -0.09166  -0.00297  -0.06562   0.00161
  34        2S          0.01698  -0.07771  -0.00352  -0.11967   0.00300
  35 5   H  1S         -0.22965  -0.08787   0.00050   0.11233  -0.00106
  36        2S         -0.14813  -0.05765   0.00099   0.16641  -0.00207
  37 6   H  1S          0.22965  -0.08784   0.00041   0.11233  -0.00160
  38        2S          0.14812  -0.05761   0.00087   0.16640  -0.00263
                          11        12        13        14        15
                           V         V         V         V         V
     Eigenvalues --    -0.09608  -0.02315  -0.01820   0.03202   0.37206
   1 1   C  1S         -0.11911   0.00167   0.00002   0.00001   0.00009
   2        2S          0.24022   0.02329  -0.00006  -0.00001  -0.00053
   3        2PX        -0.28411   0.13476   0.06374   0.01651  -0.07272
   4        2PY         0.03611  -0.01698   0.25594   0.06658  -0.88079
   5        2PZ         0.02125  -0.00998   0.41977   0.10805   0.54568
   6        3S          1.13110  -0.13383  -0.00017  -0.00005  -0.00038
   7        3PX        -0.48269   0.12546   0.12931   0.02026   0.07616
   8        3PY         0.06122  -0.01593   0.51886   0.08156   0.91624
   9        3PZ         0.03612  -0.00895   0.85038   0.13343  -0.56531
  10        4XX        -0.00146  -0.00862   0.00307  -0.00124   0.00041
  11        4YY        -0.01024   0.00534  -0.00160   0.00065  -0.00079
  12        4ZZ        -0.02796   0.00870  -0.00146   0.00060   0.00013
  13        4XY        -0.00289   0.00234   0.00687  -0.00285   0.00326
  14        4XZ        -0.00485   0.00200   0.01145  -0.00457  -0.00179
  15        4YZ        -0.01992   0.00346  -0.00202   0.00081  -0.00006
  16 2   N  1S         -0.02498  -0.10090   0.00002   0.00000   0.00001
  17        2S          0.04667   0.16289  -0.00002   0.00000  -0.00060
  18        2PX        -0.00058   0.32522   0.00734  -0.05800  -0.01103
  19        2PY         0.00021  -0.04454   0.03059  -0.23432  -0.13607
  20        2PZ        -0.00007  -0.02265   0.04750  -0.37174   0.08444
  21        3S          0.21082   1.11530  -0.00029   0.00002   0.00122
  22        3PX         0.03284   0.57774   0.01811  -0.10957   0.00635
  23        3PY        -0.00452  -0.07954   0.07478  -0.44266   0.08054
  24        3PZ        -0.00225  -0.03996   0.11780  -0.70210  -0.04840
  25        4XX        -0.00492  -0.00876  -0.00197   0.00138  -0.00245
  26        4YY        -0.00491  -0.02772   0.00111  -0.00107   0.00349
  27        4ZZ        -0.00518  -0.02846   0.00086  -0.00031  -0.00125
  28        4XY        -0.00006  -0.00301  -0.00436   0.00309  -0.01587
  29        4XZ        -0.00004  -0.00174  -0.00728   0.00509   0.00962
  30        4YZ        -0.00026  -0.00041   0.00134  -0.00109   0.00006
  31 3   H  1S         -0.17630   0.03165  -0.12362  -0.00885  -0.00065
  32        2S         -0.95883   0.13269  -1.15943  -0.21861  -0.00067
  33 4   H  1S         -0.17626   0.03181   0.12362   0.00884   0.00060
  34        2S         -0.95867   0.13346   1.15966   0.21863   0.00216
  35 5   H  1S         -0.02085  -0.11825   0.03890  -0.12595   0.00269
  36        2S         -0.14332  -0.96622   0.17931  -1.08110  -0.00181
  37 6   H  1S         -0.02091  -0.11827  -0.03885   0.12596  -0.00161
  38        2S         -0.14334  -0.96624  -0.17862   1.08113   0.00076
                          16        17        18        19        20
                           V         V         V         V         V
     Eigenvalues --     0.43307   0.43923   0.49173   0.63408   0.65366
   1 1   C  1S          0.00025   0.02632  -0.00926   0.00052   0.03420
   2        2S          0.00100   0.13316  -0.82606  -0.01155  -0.99807
   3        2PX        -0.11491  -0.96156  -0.21762   0.01983   0.30667
   4        2PY        -0.42167   0.12808   0.02850   0.15099  -0.04261
   5        2PZ        -0.69896   0.07716   0.01547  -0.10188  -0.02343
   6        3S         -0.00435  -0.50053   1.04708   0.02452   1.89720
   7        3PX         0.22668   1.30272  -0.03354  -0.03141  -0.67386
   8        3PY         0.85677  -0.17558   0.00322  -0.21518   0.09091
   9        3PZ         1.41316  -0.10950   0.00357   0.14970   0.05120
  10        4XX         0.02120  -0.00643  -0.01234   0.00446  -0.01560
  11        4YY        -0.01060   0.01715  -0.05708  -0.00777  -0.07370
  12        4ZZ        -0.00991   0.06918  -0.16695   0.00288   0.01021
  13        4XY         0.04782   0.00778  -0.01637   0.02950  -0.00230
  14        4XZ         0.07987   0.01321  -0.02935  -0.01941   0.01407
  15        4YZ        -0.01333   0.05860  -0.12371   0.00198   0.09701
  16 2   N  1S          0.00015   0.01741   0.00804   0.00006  -0.00433
  17        2S         -0.00105  -0.13288  -0.22885  -0.00867  -0.16271
  18        2PX        -0.03513   0.15240   0.39253  -0.06230   0.39425
  19        2PY        -0.14371  -0.02022  -0.05339  -0.80976  -0.03928
  20        2PZ        -0.23855  -0.00793  -0.02755   0.51806  -0.03601
  21        3S          0.00040   0.06570   0.29621   0.01348   0.16695
  22        3PX         0.04976   0.17798  -0.24343   0.06831  -0.41923
  23        3PY         0.19207  -0.02377   0.03335   0.89504   0.04071
  24        3PZ         0.31278  -0.01690   0.01689  -0.56940   0.03886
  25        4XX        -0.01645   0.01077  -0.02862   0.00002  -0.03501
  26        4YY         0.00874  -0.01684  -0.04995  -0.00419  -0.02884
  27        4ZZ         0.00748  -0.02665  -0.05935  -0.00003  -0.05773
  28        4XY        -0.03711  -0.00457  -0.00382   0.01184  -0.00181
  29        4XZ        -0.06115  -0.00424  -0.00429  -0.00938  -0.00689
  30        4YZ         0.01090  -0.01151  -0.01109   0.00070  -0.03533
  31 3   H  1S         -0.21891   0.21214  -0.55719   0.01345   0.57919
  32        2S         -0.55782   0.17850   0.24075  -0.02803  -1.17109
  33 4   H  1S          0.22285   0.20803  -0.55739   0.00596   0.57065
  34        2S          0.56095   0.16786   0.24126  -0.00908  -1.15907
  35 5   H  1S          0.22783  -0.06915  -0.06218   0.00497  -0.19046
  36        2S         -0.10069  -0.05787   0.00317  -0.00324   0.21754
  37 6   H  1S         -0.22891  -0.06471  -0.06198  -0.00473  -0.19228
  38        2S          0.09973  -0.05987   0.00304   0.00276   0.22013
                          21        22        23        24        25
                           V         V         V         V         V
     Eigenvalues --     0.66287   0.66665   0.69823   0.78846   0.81753
   1 1   C  1S         -0.00018   0.01118   0.00001  -0.01613  -0.00008
   2        2S          0.00644  -0.40198  -0.00102  -0.96218  -0.00280
   3        2PX        -0.06855  -0.03360  -0.03493  -0.12687   0.04500
   4        2PY        -0.26944   0.00437  -0.14176   0.01575   0.18410
   5        2PZ        -0.43962   0.00202  -0.23062   0.00818   0.29762
   6        3S         -0.01200   0.64763   0.00204   1.69419   0.00489
   7        3PX         0.10934  -0.03976   0.07647   0.28942  -0.12988
   8        3PY         0.42551   0.00504   0.30942  -0.03632  -0.52920
   9        3PZ         0.69453   0.00364   0.50520  -0.01818  -0.86054
  10        4XX        -0.04055  -0.00644   0.00366  -0.17607  -0.01788
  11        4YY         0.02113  -0.02395  -0.00192   0.00657   0.00844
  12        4ZZ         0.02007  -0.01074  -0.00188  -0.01891   0.00880
  13        4XY        -0.09160  -0.00160   0.00849   0.02545  -0.03819
  14        4XZ        -0.15274   0.00148   0.01400   0.00937  -0.06565
  15        4YZ         0.02611   0.01538  -0.00235  -0.03346   0.01096
  16 2   N  1S         -0.00002   0.04777  -0.00002  -0.01708  -0.00008
  17        2S          0.00107  -0.27704   0.00015  -0.12601  -0.00143
  18        2PX         0.01740  -0.10533  -0.05297  -0.81962  -0.11932
  19        2PY         0.07976   0.01755  -0.21525   0.10852  -0.46667
  20        2PZ         0.11609   0.00547  -0.33470   0.06378  -0.74677
  21        3S         -0.00125   0.49862  -0.00016   0.56763   0.00413
  22        3PX        -0.02926  -0.05366   0.04205   1.40097   0.22717
  23        3PY        -0.12762   0.00417   0.17110  -0.18675   0.89076
  24        3PZ        -0.19135   0.00554   0.26328  -0.10861   1.42176
  25        4XX        -0.00498  -0.01319   0.04475   0.06406  -0.02025
  26        4YY         0.00299  -0.05571  -0.02495  -0.05014   0.01098
  27        4ZZ         0.00258   0.06523  -0.01977  -0.10696   0.00835
  28        4XY        -0.01151   0.00443   0.10091  -0.02256  -0.04627
  29        4XZ        -0.01872   0.02673   0.16343  -0.02343  -0.07410
  30        4YZ         0.00351   0.14944  -0.03008  -0.06661   0.01330
  31 3   H  1S          0.80626   0.11460   0.04558   0.02278   0.19706
  32        2S         -1.20885  -0.27479  -0.34537  -0.37449   0.33286
  33 4   H  1S         -0.81240   0.11325  -0.04471   0.02301  -0.19752
  34        2S          1.22213  -0.27285   0.34327  -0.37148  -0.33399
  35 5   H  1S          0.07252   0.82069  -0.78263  -0.14230   0.15690
  36        2S         -0.18770  -0.73977   0.98498  -0.39409   0.64889
  37 6   H  1S         -0.07164   0.82095   0.78198  -0.14199  -0.15791
  38        2S          0.18680  -0.73990  -0.98452  -0.38811  -0.65324
                          26        27        28        29        30
                           V         V         V         V         V
     Eigenvalues --     0.93767   1.49034   1.52202   1.53408   1.65014
   1 1   C  1S          0.00520   0.00000  -0.00004  -0.00398   0.00000
   2        2S          0.51859  -0.00001   0.00057  -0.00377  -0.00028
   3        2PX         0.15688  -0.00003   0.00061  -0.01071   0.00010
   4        2PY        -0.02114  -0.00013   0.00541   0.00141   0.00027
   5        2PZ        -0.01148  -0.00020  -0.00377   0.00080   0.00041
   6        3S         -0.82885   0.00005  -0.00040   0.03195   0.00052
   7        3PX        -0.26397   0.00004   0.00059   0.06232  -0.00029
   8        3PY         0.03614   0.00012   0.00809  -0.00829  -0.00052
   9        3PZ         0.01978   0.00019  -0.00397  -0.00454  -0.00081
  10        4XX         0.12870  -0.01479   0.12099   0.78529  -0.00032
  11        4YY        -0.03690  -0.75801  -0.18627  -0.49117   0.00496
  12        4ZZ        -0.02293   0.77278   0.06496  -0.31349  -0.00457
  13        4XY        -0.02410  -0.14343   0.82454  -0.17717   0.00021
  14        4XZ        -0.01023   0.01155  -0.52430  -0.06474  -0.00118
  15        4YZ         0.01981  -0.44490   0.00470   0.23295   0.00316
  16 2   N  1S         -0.03916   0.00000   0.00002  -0.00161   0.00000
  17        2S         -1.45563   0.00021  -0.00045   0.18106  -0.00001
  18        2PX        -0.11530   0.00008   0.00341  -0.09722   0.00006
  19        2PY         0.01904   0.00021   0.03879   0.01251   0.00022
  20        2PZ         0.00663   0.00027  -0.02354   0.00727   0.00036
  21        3S          3.01542  -0.00043   0.00070  -0.25571   0.00002
  22        3PX         0.41190  -0.00022  -0.00512   0.14827   0.00015
  23        3PY        -0.06084  -0.00041  -0.05884  -0.01896   0.00063
  24        3PZ        -0.02737  -0.00059   0.03467  -0.01111   0.00100
  25        4XX        -0.32771  -0.00004  -0.01075   0.49715  -0.01693
  26        4YY        -0.22562  -0.00477   0.01744  -0.22129  -0.76771
  27        4ZZ        -0.30035   0.00485  -0.00672  -0.25747   0.78463
  28        4XY         0.00891  -0.00086  -0.07520  -0.11477  -0.14903
  29        4XZ        -0.01010   0.00024   0.05000  -0.06770   0.00830
  30        4YZ        -0.09436  -0.00267  -0.00177  -0.02530  -0.41730
  31 3   H  1S         -0.00662   0.00017  -0.00002  -0.00322  -0.00050
  32        2S          0.16169  -0.00022  -0.00039   0.01456   0.00049
  33 4   H  1S         -0.00600  -0.00018  -0.00010  -0.00324   0.00049
  34        2S          0.16261   0.00020   0.00056   0.01451  -0.00099
  35 5   H  1S         -0.09274  -0.00001   0.00006   0.02791   0.00098
  36        2S         -0.71925  -0.00015  -0.00154   0.01164  -0.00006
  37 6   H  1S         -0.09226   0.00001   0.00016   0.02785  -0.00099
  38        2S         -0.71855   0.00050   0.00097   0.01163   0.00006
                          31        32        33        34        35
                           V         V         V         V         V
     Eigenvalues --     1.66644   1.72430   1.79193   1.79793   1.95609
   1 1   C  1S         -0.00011   0.00912  -0.02710  -0.00014  -0.00249
   2        2S         -0.00280   0.38637  -0.02643  -0.00012  -0.02226
   3        2PX        -0.00360   0.10685   0.07942   0.01090   0.00285
   4        2PY        -0.03424  -0.01413  -0.01054   0.04225  -0.00027
   5        2PZ         0.02267  -0.00781  -0.00621   0.06944  -0.00032
   6        3S          0.00434  -0.55916   0.25727   0.00129   0.06126
   7        3PX         0.00695  -0.19488  -0.34660  -0.07705   0.03378
   8        3PY         0.05826   0.02637   0.04588  -0.30244  -0.00446
   9        3PZ        -0.03916   0.01428   0.02833  -0.49610  -0.00226
  10        4XX         0.01605  -0.34248  -0.46995   0.22586   0.05443
  11        4YY        -0.02119   0.33626  -0.15211  -0.11563  -0.02536
  12        4ZZ         0.00534  -0.04713   0.52327  -0.11075  -0.03397
  13        4XY         0.07436   0.06905   0.10518   0.51236  -0.01279
  14        4XZ        -0.05150  -0.03294   0.17902   0.85688  -0.00889
  15        4YZ         0.00449  -0.45205   0.75985  -0.14489  -0.00795
  16 2   N  1S         -0.00049   0.01296   0.00644   0.00004  -0.02686
  17        2S          0.00196  -0.19825  -0.14252  -0.00077  -0.30801
  18        2PX        -0.00167   0.14121   0.07797  -0.00221  -0.08500
  19        2PY         0.01066  -0.01786  -0.00989  -0.01047   0.01197
  20        2PZ        -0.00663  -0.01064  -0.00584  -0.01700   0.00570
  21        3S          0.00172   0.15803   0.15264   0.00077   0.73880
  22        3PX         0.00310  -0.33384  -0.18399   0.00960   0.43087
  23        3PY        -0.02610   0.04315   0.02375   0.04177  -0.05814
  24        3PZ         0.01639   0.02450   0.01328   0.06740  -0.03052
  25        4XX         0.11260   0.79346   0.32755   0.00310  -0.03474
  26        4YY        -0.18787  -0.36389  -0.15419  -0.00304  -0.41765
  27        4ZZ         0.07280  -0.36646  -0.13778   0.00017   0.33270
  28        4XY         0.81858  -0.16931  -0.07113   0.00458   0.00531
  29        4XZ        -0.53491  -0.10229  -0.03674   0.00270   0.15845
  30        4YZ         0.01565   0.02381   0.03267  -0.00101   0.93146
  31 3   H  1S         -0.00204   0.16608  -0.40190   0.45825   0.00986
  32        2S          0.00157   0.02912   0.01860   0.07894  -0.01135
  33 4   H  1S          0.00008   0.16628  -0.39746  -0.46213   0.01001
  34        2S         -0.00180   0.02961   0.01957  -0.07874  -0.01128
  35 5   H  1S         -0.00197   0.03207   0.00334   0.03441  -0.49088
  36        2S         -0.00070   0.03854   0.01025   0.00172  -0.06624
  37 6   H  1S         -0.00203   0.03218   0.00376  -0.03452  -0.49098
  38        2S         -0.00100   0.03873   0.01019  -0.00167  -0.06623
                          36        37        38
                           V         V         V
     Eigenvalues --     2.09924   3.43563   3.74920
   1 1   C  1S         -0.00001  -0.03408  -0.45526
   2        2S          0.00005   0.39763   3.05912
   3        2PX         0.00205   0.03651  -0.00900
   4        2PY         0.00829  -0.00474   0.00136
   5        2PZ         0.01329  -0.00271   0.00061
   6        3S         -0.00002  -0.08347   1.35687
   7        3PX        -0.00857  -0.16145  -0.02658
   8        3PY        -0.03470   0.02105   0.00273
   9        3PZ        -0.05596   0.01201   0.00209
  10        4XX        -0.00421  -0.23412  -1.76283
  11        4YY         0.00229  -0.12689  -1.80734
  12        4ZZ         0.00186  -0.12677  -1.80065
  13        4XY        -0.00962   0.01627  -0.00620
  14        4XZ        -0.01493   0.00897  -0.00212
  15        4YZ         0.00280  -0.00242   0.00871
  16 2   N  1S          0.00000  -0.43812   0.05449
  17        2S          0.00004   1.27091  -0.07267
  18        2PX        -0.01108  -0.02310  -0.02872
  19        2PY        -0.04474   0.00325   0.00369
  20        2PZ        -0.07099   0.00159   0.00214
  21        3S         -0.00011   2.44555  -0.41921
  22        3PX         0.07596   0.14320   0.11153
  23        3PY         0.30709  -0.01989  -0.01432
  24        3PZ         0.48710  -0.00994  -0.00830
  25        4XX         0.24366  -1.38838   0.11256
  26        4YY        -0.13256  -1.45516   0.19892
  27        4ZZ        -0.11108  -1.43122   0.19915
  28        4XY         0.54971  -0.00834   0.01311
  29        4XZ         0.89168   0.00063   0.00728
  30        4YZ        -0.16193   0.03119  -0.00199
  31 3   H  1S          0.01251   0.01254   0.11274
  32        2S          0.01682  -0.02337  -0.33123
  33 4   H  1S         -0.01263   0.01262   0.11271
  34        2S         -0.01670  -0.02320  -0.33145
  35 5   H  1S          0.61247   0.11183  -0.01245
  36        2S         -0.04429  -0.45071   0.04156
  37 6   H  1S         -0.61236   0.11187  -0.01246
  38        2S          0.04430  -0.45064   0.04153
     Density Matrix:
                           1         2         3         4         5
   1 1   C  1S          2.05829
   2        2S         -0.08876   0.43247
   3        2PX         0.00018  -0.00736   0.41102
   4        2PY        -0.00035   0.00161  -0.01333   0.14921
   5        2PZ         0.00018   0.00015   0.02266   0.21993   0.36846
   6        3S         -0.21774   0.43670   0.08475  -0.00929  -0.00719
   7        3PX        -0.00730   0.01407   0.26618  -0.01619   0.00190
   8        3PY         0.00057  -0.00094  -0.01549   0.06919   0.09053
   9        3PZ         0.00077  -0.00158   0.00141   0.09050   0.15805
  10        4XX        -0.01760  -0.01564  -0.00332  -0.00353  -0.00607
  11        4YY        -0.01800  -0.01430  -0.00174   0.00206   0.00334
  12        4ZZ        -0.02356  -0.00210  -0.01137   0.00338   0.00407
  13        4XY        -0.00055   0.00129  -0.00297  -0.00806  -0.01423
  14        4XZ        -0.00132   0.00294  -0.00581  -0.01432  -0.02314
  15        4YZ        -0.00631   0.01383  -0.01032   0.00379   0.00490
  16 2   N  1S          0.00343  -0.00580  -0.03363   0.00435   0.00246
  17        2S         -0.00628   0.00962   0.06380  -0.00837  -0.00460
  18        2PX         0.04064  -0.08450  -0.26675   0.03955   0.01588
  19        2PY        -0.00711   0.01543   0.04979   0.06267  -0.04804
  20        2PZ        -0.00186   0.00346   0.00962  -0.04794   0.02382
  21        3S         -0.01279   0.02616   0.13490  -0.01736  -0.00990
  22        3PX         0.02663  -0.05792  -0.19139   0.02842   0.01083
  23        3PY        -0.00493   0.01109   0.03664   0.04782  -0.03841
  24        3PZ        -0.00105   0.00205   0.00580  -0.03832   0.01623
  25        4XX        -0.00055   0.00120  -0.00171   0.00016  -0.00026
  26        4YY         0.00056  -0.00185  -0.00690   0.00081   0.00078
  27        4ZZ         0.00118  -0.00329  -0.00994   0.00136   0.00087
  28        4XY         0.00026  -0.00067  -0.00135   0.00057  -0.00107
  29        4XZ         0.00022  -0.00056  -0.00125  -0.00109  -0.00069
  30        4YZ         0.00071  -0.00166  -0.00348   0.00048   0.00051
  31 3   H  1S         -0.05520   0.12040  -0.07901   0.13339   0.20562
  32        2S         -0.01095   0.03181  -0.05741   0.09034   0.13908
  33 4   H  1S         -0.05519   0.12039  -0.13901  -0.10720  -0.18845
  34        2S         -0.01093   0.03178  -0.09794  -0.07199  -0.12667
  35 5   H  1S          0.01052  -0.02262  -0.06595   0.01002   0.00810
  36        2S          0.00622  -0.01279  -0.04804   0.00651   0.00443
  37 6   H  1S          0.01052  -0.02261  -0.06685   0.00646   0.00206
  38        2S          0.00622  -0.01278  -0.04826   0.00561   0.00283
                           6         7         8         9        10
   6        3S          0.47009
   7        3PX         0.07463   0.17366
   8        3PY        -0.00795  -0.01321   0.03507
   9        3PZ        -0.00652  -0.00468   0.03554   0.06917
  10        4XX        -0.01508  -0.00260  -0.00135  -0.00246   0.00091
  11        4YY        -0.01369  -0.00184   0.00094   0.00154   0.00069
  12        4ZZ        -0.00334  -0.00758   0.00176   0.00193   0.00034
  13        4XY         0.00113  -0.00138  -0.00314  -0.00614   0.00020
  14        4XZ         0.00251  -0.00284  -0.00615  -0.00962   0.00032
  15        4YZ         0.01173  -0.00627   0.00182   0.00222  -0.00046
  16 2   N  1S         -0.01494  -0.02198   0.00293   0.00156  -0.00055
  17        2S          0.02566   0.04059  -0.00550  -0.00282   0.00123
  18        2PX        -0.14808  -0.17796   0.02905   0.00953   0.00510
  19        2PY         0.02595   0.03541   0.06698  -0.04604  -0.00039
  20        2PZ         0.00676   0.00565  -0.04578   0.02889  -0.00005
  21        3S          0.05907   0.08754  -0.01152  -0.00628   0.00046
  22        3PX        -0.10338  -0.12753   0.02097   0.00642   0.00355
  23        3PY         0.01881   0.02613   0.05140  -0.03641  -0.00027
  24        3PZ         0.00428   0.00328  -0.03618   0.02097  -0.00003
  25        4XX         0.00087  -0.00104   0.00022  -0.00010  -0.00001
  26        4YY        -0.00350  -0.00455   0.00044   0.00049   0.00004
  27        4ZZ        -0.00564  -0.00664   0.00089   0.00052   0.00018
  28        4XY        -0.00099  -0.00085   0.00081  -0.00066   0.00005
  29        4XZ        -0.00081  -0.00080  -0.00067   0.00007   0.00007
  30        4YZ        -0.00246  -0.00242   0.00027   0.00029   0.00016
  31 3   H  1S          0.09902  -0.05323   0.05857   0.08836  -0.00674
  32        2S          0.01477  -0.04078   0.03996   0.06007  -0.00288
  33 4   H  1S          0.09899  -0.07854  -0.04298  -0.07782   0.00007
  34        2S          0.01472  -0.05790  -0.02860  -0.05198   0.00171
  35 5   H  1S         -0.03818  -0.04481   0.00557   0.00352   0.00160
  36        2S         -0.02415  -0.03217   0.00379   0.00197   0.00075
  37 6   H  1S         -0.03815  -0.04482   0.00557   0.00333   0.00204
  38        2S         -0.02413  -0.03202   0.00437   0.00282   0.00100
                          11        12        13        14        15
  11        4YY         0.00073
  12        4ZZ         0.00042   0.00067
  13        4XY        -0.00016  -0.00010   0.00057
  14        4XZ        -0.00028  -0.00015   0.00091   0.00156
  15        4YZ        -0.00032   0.00033  -0.00009  -0.00011   0.00078
  16 2   N  1S          0.00077   0.00141   0.00027   0.00025   0.00069
  17        2S         -0.00128  -0.00255  -0.00052  -0.00049  -0.00137
  18        2PX         0.00397   0.00796   0.00075   0.00076   0.00438
  19        2PY        -0.00144  -0.00102   0.00380  -0.00144  -0.00082
  20        2PZ         0.00002  -0.00084  -0.00138   0.00265  -0.00049
  21        3S         -0.00232  -0.00480  -0.00070  -0.00078  -0.00274
  22        3PX         0.00278   0.00573   0.00056   0.00055   0.00323
  23        3PY        -0.00107  -0.00073   0.00290  -0.00118  -0.00061
  24        3PZ         0.00006  -0.00060  -0.00113   0.00195  -0.00035
  25        4XX        -0.00004   0.00004   0.00004   0.00005   0.00008
  26        4YY         0.00013   0.00024   0.00000   0.00002   0.00013
  27        4ZZ         0.00016   0.00031   0.00000   0.00001   0.00016
  28        4XY         0.00001   0.00004   0.00009   0.00006   0.00000
  29        4XZ         0.00001   0.00001   0.00006   0.00016  -0.00001
  30        4YZ         0.00005   0.00008  -0.00003  -0.00003   0.00005
  31 3   H  1S         -0.00132   0.00465  -0.00705  -0.01136   0.00895
  32        2S          0.00060   0.00333  -0.00490  -0.00798   0.00456
  33 4   H  1S         -0.00470   0.00122   0.00822   0.01417   0.00455
  34        2S         -0.00167   0.00102   0.00540   0.00924   0.00159
  35 5   H  1S          0.00101   0.00192  -0.00053  -0.00070   0.00119
  36        2S          0.00070   0.00147  -0.00022  -0.00031   0.00095
  37 6   H  1S          0.00078   0.00170   0.00047   0.00094   0.00090
  38        2S          0.00057   0.00135   0.00034   0.00060   0.00079
                          16        17        18        19        20
  16 2   N  1S          2.05650
  17        2S         -0.11202   0.39351
  18        2PX        -0.01619   0.03823   0.23122
  19        2PY         0.00380  -0.00864   0.06639   0.70553
  20        2PZ         0.00013  -0.00050  -0.00134  -0.14566   0.58315
  21        3S         -0.20524   0.45509  -0.00183  -0.00633   0.00430
  22        3PX        -0.00762   0.02187   0.16295   0.04461  -0.01106
  23        3PY         0.00233  -0.00602   0.04543   0.51554  -0.16049
  24        3PZ        -0.00028   0.00038  -0.01158  -0.16024   0.37521
  25        4XX        -0.01937   0.00038   0.00219   0.00461   0.00486
  26        4YY        -0.01245  -0.01438   0.00171  -0.00317  -0.00227
  27        4ZZ        -0.01847  -0.00145   0.00721  -0.00224  -0.00382
  28        4XY         0.00066  -0.00139   0.00359   0.01468   0.00853
  29        4XZ        -0.00103   0.00221   0.00404   0.00850   0.02365
  30        4YZ        -0.00762   0.01636   0.00581  -0.00356  -0.00382
  31 3   H  1S          0.00696  -0.01353   0.04717  -0.00987  -0.00633
  32        2S          0.00501  -0.00936   0.04527  -0.00942  -0.00493
  33 4   H  1S          0.00696  -0.01354   0.04826  -0.00563   0.00123
  34        2S          0.00501  -0.00936   0.04604  -0.00685   0.00093
  35 5   H  1S         -0.05018   0.10891   0.04609  -0.12862  -0.19837
  36        2S         -0.00907   0.01676   0.02143  -0.08131  -0.12784
  37 6   H  1S         -0.05018   0.10892   0.10581   0.11277   0.18466
  38        2S         -0.00907   0.01677   0.05997   0.07444   0.11945
                          21        22        23        24        25
  21        3S          0.53915
  22        3PX        -0.00759   0.11513
  23        3PY        -0.00442   0.03145   0.38203
  24        3PZ         0.00398  -0.01421  -0.15048   0.24813
  25        4XX         0.00090   0.00141   0.00279   0.00252   0.00029
  26        4YY        -0.01680   0.00145  -0.00206  -0.00115   0.00011
  27        4ZZ        -0.00263   0.00520  -0.00128  -0.00228   0.00017
  28        4XY        -0.00185   0.00229   0.00958   0.00378   0.00023
  29        4XZ         0.00236   0.00231   0.00372   0.01374   0.00035
  30        4YZ         0.01799   0.00400  -0.00219  -0.00210   0.00001
  31 3   H  1S         -0.02776   0.03444  -0.00788  -0.00550   0.00058
  32        2S         -0.02151   0.03253  -0.00730  -0.00408   0.00027
  33 4   H  1S         -0.02778   0.03553  -0.00370   0.00189   0.00098
  34        2S         -0.02153   0.03328  -0.00476   0.00141   0.00055
  35 5   H  1S          0.11258   0.03599  -0.07243  -0.11096  -0.00253
  36        2S          0.01110   0.01806  -0.04554  -0.07158  -0.00177
  37 6   H  1S          0.11260   0.06912   0.06143   0.10150   0.00379
  38        2S          0.01112   0.03943   0.04081   0.06558   0.00231
                          26        27        28        29        30
  26        4YY         0.00075
  27        4ZZ         0.00036   0.00048
  28        4XY        -0.00005  -0.00006   0.00057
  29        4XZ        -0.00022  -0.00015   0.00073   0.00131
  30        4YZ        -0.00046   0.00017  -0.00017  -0.00010   0.00083
  31 3   H  1S          0.00141   0.00184  -0.00028  -0.00061   0.00064
  32        2S          0.00119   0.00175  -0.00011  -0.00033   0.00074
  33 4   H  1S          0.00120   0.00165   0.00060   0.00086   0.00038
  34        2S          0.00105   0.00162   0.00049   0.00069   0.00056
  35 5   H  1S         -0.00116   0.00374  -0.00720  -0.01065   0.00804
  36        2S          0.00109   0.00242  -0.00447  -0.00719   0.00288
  37 6   H  1S         -0.00428   0.00053   0.00711   0.01248   0.00401
  38        2S         -0.00093   0.00035   0.00476   0.00773   0.00028
                          31        32        33        34        35
  31 3   H  1S          0.16948
  32        2S          0.10164   0.06584
  33 4   H  1S         -0.04467  -0.04280   0.16950
  34        2S         -0.04280  -0.03157   0.10166   0.06587
  35 5   H  1S          0.01443   0.01384   0.00878   0.00980   0.15641
  36        2S          0.01050   0.00935   0.00810   0.00759   0.08512
  37 6   H  1S          0.00879   0.00979   0.01443   0.01383  -0.05595
  38        2S          0.00810   0.00758   0.01050   0.00935  -0.05195
                          36        37        38
  36        2S          0.05209
  37 6   H  1S         -0.05196   0.15640
  38        2S         -0.03639   0.08510   0.05208
    Full Mulliken population analysis:
                           1         2         3         4         5
   1 1   C  1S          2.05829
   2        2S         -0.01944   0.43247
   3        2PX         0.00000   0.00000   0.41102
   4        2PY         0.00000   0.00000   0.00000   0.14921
   5        2PZ         0.00000   0.00000   0.00000   0.00000   0.36846
   6        3S         -0.04012   0.35472   0.00000   0.00000   0.00000
   7        3PX         0.00000   0.00000   0.15166   0.00000   0.00000
   8        3PY         0.00000   0.00000   0.00000   0.03942   0.00000
   9        3PZ         0.00000   0.00000   0.00000   0.00000   0.09005
  10        4XX        -0.00139  -0.01111   0.00000   0.00000   0.00000
  11        4YY        -0.00142  -0.01016   0.00000   0.00000   0.00000
  12        4ZZ        -0.00186  -0.00149   0.00000   0.00000   0.00000
  13        4XY         0.00000   0.00000   0.00000   0.00000   0.00000
  14        4XZ         0.00000   0.00000   0.00000   0.00000   0.00000
  15        4YZ         0.00000   0.00000   0.00000   0.00000   0.00000
  16 2   N  1S          0.00000   0.00000   0.00000   0.00000   0.00000
  17        2S          0.00000   0.00001   0.00012   0.00000   0.00000
  18        2PX         0.00000   0.00014   0.00109   0.00002   0.00001
  19        2PY         0.00000   0.00000   0.00003   0.00001   0.00000
  20        2PZ         0.00000   0.00000   0.00000   0.00000   0.00001
[...]
  20        2PZ         0.00000   0.00000   0.00000   0.00000   0.58315
  21        3S         -0.03527   0.35293   0.00000   0.00000   0.00000
  22        3PX         0.00000   0.00000   0.08462   0.00000   0.00000
  23        3PY         0.00000   0.00000   0.00000   0.26772   0.00000
  24        3PZ         0.00000   0.00000   0.00000   0.00000   0.19484
  25        4XX        -0.00098   0.00024   0.00000   0.00000   0.00000
  26        4YY        -0.00063  -0.00915   0.00000   0.00000   0.00000
  27        4ZZ        -0.00093  -0.00092   0.00000   0.00000   0.00000
  28        4XY         0.00000   0.00000   0.00000   0.00000   0.00000
  29        4XZ         0.00000   0.00000   0.00000   0.00000   0.00000
  30        4YZ         0.00000   0.00000   0.00000   0.00000   0.00000
  31 3   H  1S          0.00000   0.00000   0.00000   0.00000   0.00000
  32        2S          0.00000  -0.00004  -0.00021  -0.00001  -0.00001
  33 4   H  1S          0.00000   0.00000   0.00000   0.00000   0.00000
  34        2S          0.00000  -0.00004  -0.00024   0.00000   0.00000
  35 5   H  1S         -0.00085   0.01834   0.00477   0.01533   0.03382
  36        2S         -0.00059   0.00605   0.00182   0.00795   0.01788
  37 6   H  1S         -0.00085   0.01834   0.01628   0.00951   0.02812
  38        2S         -0.00059   0.00606   0.00757   0.00515   0.01493
                          21        22        23        24        25
  21        3S          0.53915
  22        3PX         0.00000   0.11513
  23        3PY         0.00000   0.00000   0.38203
  24        3PZ         0.00000   0.00000   0.00000   0.24813
  25        4XX         0.00060   0.00000   0.00000   0.00000   0.00029
  26        4YY        -0.01126   0.00000   0.00000   0.00000   0.00004
  27        4ZZ        -0.00176   0.00000   0.00000   0.00000   0.00006
  28        4XY         0.00000   0.00000   0.00000   0.00000   0.00000
  29        4XZ         0.00000   0.00000   0.00000   0.00000   0.00000
  30        4YZ         0.00000   0.00000   0.00000   0.00000   0.00000
  31 3   H  1S         -0.00004  -0.00017  -0.00001  -0.00001   0.00000
  32        2S         -0.00058  -0.00195  -0.00015  -0.00010   0.00000
  33 4   H  1S         -0.00004  -0.00020   0.00000   0.00000   0.00000
  34        2S         -0.00059  -0.00220   0.00002  -0.00002   0.00001
  35 5   H  1S          0.03756   0.00839   0.01944   0.04259  -0.00039
  36        2S          0.00699   0.00446   0.01295   0.02912  -0.00060
  37 6   H  1S          0.03757   0.02395   0.01167   0.03480   0.00085
  38        2S          0.00700   0.01448   0.00821   0.02383   0.00083
                          26        27        28        29        30
  26        4YY         0.00075
  27        4ZZ         0.00012   0.00048
  28        4XY         0.00000   0.00000   0.00057
  29        4XZ         0.00000   0.00000   0.00000   0.00131
  30        4YZ         0.00000   0.00000   0.00000   0.00000   0.00083
  31 3   H  1S          0.00000   0.00000   0.00000   0.00000   0.00000
  32        2S          0.00000   0.00001   0.00000   0.00000   0.00000
  33 4   H  1S          0.00000   0.00000   0.00000   0.00000   0.00000
  34        2S          0.00000   0.00001   0.00000   0.00000   0.00000
  35 5   H  1S         -0.00020   0.00095   0.00086   0.00181   0.00157
  36        2S          0.00038   0.00089   0.00015   0.00035   0.00016
  37 6   H  1S         -0.00057   0.00012   0.00089   0.00282   0.00050
  38        2S         -0.00031   0.00013   0.00017   0.00050   0.00001
                          31        32        33        34        35
  31 3   H  1S          0.16948
  32        2S          0.06691   0.06584
  33 4   H  1S         -0.00008  -0.00250   0.16950
  34        2S         -0.00250  -0.00712   0.06692   0.06587
  35 5   H  1S          0.00000   0.00000   0.00000   0.00001   0.15641
  36        2S          0.00000   0.00004   0.00001   0.00013   0.05603
  37 6   H  1S          0.00000   0.00001   0.00000   0.00000  -0.00052
  38        2S          0.00001   0.00013   0.00000   0.00004  -0.00587
                          36        37        38
  36        2S          0.05209
  37 6   H  1S         -0.00587   0.15640
  38        2S         -0.01232   0.05602   0.05208
     Gross orbital populations:
                           1
   1 1   C  1S          1.99059
   2        2S          0.81892
   3        2PX         0.63329
   4        2PY         0.23954
   5        2PZ         0.59065
   6        3S          0.87664
   7        3PX         0.46113
   8        3PY         0.12578
   9        3PZ         0.27606
  10        4XX        -0.02208
  11        4YY        -0.02031
  12        4ZZ        -0.00204
  13        4XY         0.00227
  14        4XZ         0.00623
  15        4YZ         0.00338
  16 2   N  1S          1.99060
  17        2S          0.76504
  18        2PX         0.36763
  19        2PY         1.01281
  20        2PZ         0.87330
  21        3S          0.96577
  22        3PX         0.33980
  23        3PY         0.71078
  24        3PZ         0.57614
  25        4XX         0.00083
  26        4YY        -0.02128
  27        4ZZ        -0.00153
  28        4XY         0.00264
  29        4XZ         0.00680
  30        4YZ         0.00307
  31 3   H  1S          0.41416
  32        2S          0.23621
  33 4   H  1S          0.41420
  34        2S          0.23623
  35 5   H  1S          0.38945
  36        2S          0.17394
  37 6   H  1S          0.38943
  38        2S          0.17392
          Condensed to atoms (all electrons):
              1          2          3          4          5          6
     1  C    5.230863   0.165678   0.296518   0.296507  -0.004752  -0.004747
     2  N    0.165678   6.889340  -0.003264  -0.003276   0.271958   0.271960
     3  H    0.296518  -0.003264   0.369140  -0.012210   0.000046   0.000141
     4  H    0.296507  -0.003276  -0.012210   0.369220   0.000142   0.000046
     5  H   -0.004752   0.271958   0.000046   0.000142   0.320568  -0.024575
     6  H   -0.004747   0.271960   0.000141   0.000046  -0.024575   0.320520
 Mulliken atomic charges:
              1
     1  C    0.019932
     2  N   -0.592397
     3  H    0.349628
     4  H    0.349570
     5  H    0.436612
     6  H    0.436654
 Sum of Mulliken atomic charges =   1.00000
 Mulliken charges with hydrogens summed into heavy atoms:
              1
     1  C    0.719131
     2  N    0.280869
 Sum of Mulliken charges with hydrogens summed into heavy atoms =   1.00000
 Electronic spatial extent (au):  <R**2>=            335.8032
 Charge=              1.0000 electrons
 Dipole moment (field-independent basis, Debye):
    X=            -11.5251    Y=              1.4806    Z=              0.8434  Tot=             11.6504
 Quadrupole moment (field-independent basis, Debye-Ang):
   XX=             33.9555   YY=            -10.8188   ZZ=             -8.0213
   XY=             -5.6535   XZ=             -2.6223   YZ=              3.8626
 Traceless Quadrupole moment (field-independent basis, Debye-Ang):
   XX=             28.9170   YY=            -15.8573   ZZ=            -13.0597
   XY=             -5.6535   XZ=             -2.6223   YZ=              3.8626
 Octapole moment (field-independent basis, Debye-Ang**2):
  XXX=            -97.5186  YYY=             -7.0597  ZZZ=             -2.9583  XYY=             16.6602
  XXY=             16.8103  XXZ=              7.8258  XZZ=             13.2620  YZZ=             -0.9381
  YYZ=              0.0975  XYZ=             -6.4550
 Hexadecapole moment (field-independent basis, Debye-Ang**3):
 XXXX=            179.2835 YYYY=            -20.2160 ZZZZ=            -17.8553 XXXY=            -39.5523
 XXXZ=            -12.8790 YYYX=             17.4197 YYYZ=             -2.1177 ZZZX=              6.0365
 ZZZY=              0.0207 XXYY=            -46.5854 XXZZ=            -32.3889 YYZZ=             -4.1895
 XXYZ=             22.0802 YYXZ=             -2.1005 ZZXY=              0.7481
 N-N= 2.517906418778D+01 E-N=-2.652056381723D+02  KE= 9.243336615150D+01
 Orbital energies and kinetic energies (alpha):
                                 1                 2
   1         O               -14.540052         21.927072
   2         O               -10.619144         15.846180
   3         O                -1.144906          1.857961
   4         O                -1.075491          1.432734
   5         O                -0.835369          0.996363
   6         O                -0.780226          1.283338
   7         O                -0.665310          1.184131
   8         O                -0.584368          1.688905
   9         V                -0.322775          1.757658
  10         V                -0.302130          1.196748
  11         V                -0.096082          1.087183
  12         V                -0.023152          1.202630
  13         V                -0.018199          1.016529
  14         V                 0.032016          1.172510
  15         V                 0.372058          2.073478
  16         V                 0.433074          1.725154
  17         V                 0.439229          2.004789
  18         V                 0.491734          1.860402
  19         V                 0.634076          2.664212
  20         V                 0.653658          2.282598
  21         V                 0.662871          2.191764
  22         V                 0.666647          2.106399
  23         V                 0.698234          2.222289
  24         V                 0.788462          2.531326
  25         V                 0.817531          2.597347
  26         V                 0.937669          2.059289
  27         V                 1.490339          2.799993
  28         V                 1.522017          2.802714
  29         V                 1.534080          2.799274
  30         V                 1.650136          2.800009
  31         V                 1.666436          2.806622
  32         V                 1.724301          2.995798
  33         V                 1.791932          3.192051
  34         V                 1.797934          3.202340
  35         V                 1.956087          3.211822
  36         V                 2.099244          3.472316
  37         V                 3.435629          9.219566
  38         V                 3.749197          9.721444
 Total kinetic energy from orbitals= 9.243336615150D+01
 Calling FoFJK, ICntrl=      5127 FMM=F ISym2X=0 I1Cent= 0 IOpClX= 0 NMat=1 NMatS=1 NMatT=0.
 FoFJK:  IHMeth= 1 ICntrl=  5127 DoSepK=T KAlg= 1 I1Cent= 0 FoldK=F
 -------------------------------------------------------------------
 Center     Atomic                   Forces (Hartrees/Bohr)
 Number     Number              X              Y              Z
 -------------------------------------------------------------------
      1        6          -0.036391694    0.008192282    0.000498972
      2        7           0.046233411   -0.012724367    0.000794735
      3        1           0.016683797   -0.039468871   -0.059123565
      4        1           0.034242712    0.031033729    0.056523804
      5        1          -0.021358196    0.042955535    0.058433249
      6        1          -0.039410029   -0.029988308   -0.057127195
 -------------------------------------------------------------------
 Cartesian Forces:  Max     0.059123565 RMS     0.037849028

 GradGradGradGradGradGradGradGradGradGradGradGradGradGradGradGradGradGrad
 Berny optimization.
 Search for a local minimum.
 Step number   1 out of a maximum of    2
 All quantities printed in internal units (Hartrees-Bohrs-Radians)
 Second derivative matrix not updated -- first step.
 The second derivative matrix:
                          X1        Y1        Z1        X2        Y2
           X1           0.17102
           Y1           0.00151   0.09216
           Z1           0.02412   0.14832   0.24144
           X2           0.00000   0.00000   0.00000   0.25913
           Y2           0.00000   0.00000   0.00000  -0.00868   0.10792
           Z2           0.00000   0.00000   0.00000   0.02266   0.16622
           X3          -0.06776   0.03954   0.05495   0.00000   0.00000
           Y3           0.02795  -0.05504  -0.08491   0.00000   0.00000
           Z3           0.03633  -0.08344  -0.12950   0.00000   0.00000
           X4          -0.10326  -0.04104  -0.07907   0.00000   0.00000
           Y4          -0.02946  -0.03713  -0.06341   0.00000   0.00000
           Z4          -0.06045  -0.06488  -0.11194   0.00000   0.00000
           X5           0.00000   0.00000   0.00000  -0.10118   0.06799
           Y5           0.00000   0.00000   0.00000   0.05160  -0.06950
           Z5           0.00000   0.00000   0.00000   0.06595  -0.09834
           X6           0.00000   0.00000   0.00000  -0.15795  -0.05931
           Y6           0.00000   0.00000   0.00000  -0.04292  -0.03842
           Z6           0.00000   0.00000   0.00000  -0.08861  -0.06788
                          Z2        X3        Y3        Z3        X4
           Z2           0.26102
           X3           0.00000   0.04547
           Y3           0.00000  -0.03058   0.05609
           Z3           0.00000  -0.04338   0.08628   0.13316
           X4           0.00000   0.02229   0.00263   0.00705   0.08097
           Y4           0.00000  -0.00896  -0.00106  -0.00283   0.03842
           Z4           0.00000  -0.01157  -0.00136  -0.00366   0.07202
           X5           0.09137   0.00000   0.00000   0.00000   0.00000
           Y5          -0.10063   0.00000   0.00000   0.00000   0.00000
           Z5          -0.14337   0.00000   0.00000   0.00000   0.00000
           X6          -0.11403   0.00000   0.00000   0.00000   0.00000
           Y6          -0.06559   0.00000   0.00000   0.00000   0.00000
           Z6          -0.11765   0.00000   0.00000   0.00000   0.00000
                          Y4        Z4        X5        Y5        Z5
           Y4           0.03818
           Z4           0.06624   0.11560
           X5           0.00000   0.00000   0.07944
           Y5           0.00000   0.00000  -0.05612   0.07197
           Z5           0.00000   0.00000  -0.07599   0.10382   0.15048
           X6           0.00000   0.00000   0.02173   0.00452   0.01004
           Y6           0.00000   0.00000  -0.01187  -0.00247  -0.00548
           Z6           0.00000   0.00000  -0.01539  -0.00320  -0.00711
                          X6        Y6        Z6
           X6           0.13622
           Y6           0.05479   0.04089
           Z6           0.10399   0.07107   0.12476
     Eigenvalues ---    0.00000   0.00000   0.00000   0.00000   0.00000
     Eigenvalues ---    0.00000   0.10107   0.10835   0.30238   0.45125
     Eigenvalues ---    0.46471   0.54680
 Eigenvalue     1 is  -1.14D-16 should be greater than     0.000000 Eigenvector:
                          Y3        Y4        Y1        Z1        Z4
   1                   -0.40947  -0.39064   0.36333  -0.35896   0.27677
                          X3        Y5        Z3        Z2        X4
   1                    0.26994   0.22129   0.21752   0.20510  -0.19533
 Eigenvalue     2 is  -4.58D-17 should be greater than     0.000000 Eigenvector:
                          Y5        Y3        Y6        Z2        Z5
   1                   -0.47833  -0.31558  -0.29282  -0.28303   0.27061
                          X3        Y2        Y1        Y4        Z3
   1                   -0.26291   0.26069   0.25976  -0.23926   0.23778
 Eigenvalue     3 is  -1.56D-17 should be greater than     0.000000 Eigenvector:
                          X4        X6        X1        X2        X5
   1                    0.50798  -0.45827   0.40169  -0.38614  -0.30865
                          X3        Y5        Z3        Z6        Y1
   1                    0.29664   0.07939  -0.07740   0.07684  -0.07102
 Eigenvalue     4 is  -1.10D-17 should be greater than     0.000000 Eigenvector:
                          Y6        Z6        X4        X3        Y3
   1                    0.45008  -0.41552   0.40085  -0.38586  -0.26537
                          Z4        Y2        Y4        Z3        X5
   1                   -0.22734  -0.19719   0.17258   0.15951  -0.15480
 Eigenvalue     5 is   5.09D-17 Eigenvector:
                          Y6        X6        Y4        X3        X5
   1                    0.39272  -0.38466   0.37588   0.36863   0.35469
                          Z5        X4        Y5        Y3        Z3
   1                    0.27409  -0.26522  -0.24520  -0.17373   0.16432
 Eigenvalue     6 is   7.78D-17 Eigenvector:
                          X5        X6        Y2        X3        Y5
   1                    0.57229  -0.38627  -0.32220  -0.31391   0.29675
                          Z5        Y1        X4        Y3        Y4
   1                   -0.21159   0.18081   0.17954   0.17766  -0.16362
 Quadratic step=1.476D+02 exceeds max=3.000D-01 adjusted using Lamda=-2.566D-01.
 Angle between NR and scaled steps=  78.67 degrees.
 Angle between quadratic step and forces=  17.16 degrees.
 Linear search not attempted -- first point.
 TrRot= -0.001253 -0.006993  0.004584 -0.243258 -0.000959  0.241767
 Variable       Old X    -DE/DX   Delta X   Delta X   Delta X     New X
                                 (Linear)    (Quad)   (Total)
    X1       -5.99286  -0.03639   0.00000  -0.02745  -0.02793  -6.02079
    Y1        0.77471   0.00819   0.00000   0.01329   0.01537   0.79008
    Z1        0.43829   0.00050   0.00000  -0.00401  -0.00521   0.43309
    X2       -1.19835   0.04623   0.00000   0.02122   0.02008  -1.17827
    Y2        0.15143  -0.01272   0.00000  -0.01781  -0.02303   0.12841
    Z2        0.08531   0.00079   0.00000   0.00789   0.01135   0.09666
    X3       -6.73842   0.01668   0.00000   0.02372   0.02329  -6.71513
    Y3        2.01327  -0.03947   0.00000  -0.08825  -0.08472   1.92855
    Z3        2.33435  -0.05912   0.00000  -0.12373  -0.12583   2.20851
    X4       -7.29156   0.03424   0.00000   0.06147   0.06111  -7.23044
    Y4       -0.20667   0.03103   0.00000   0.06373   0.06724  -0.13943
    Z4       -1.30376   0.05652   0.00000   0.12572   0.12361  -1.18015
    X5       -0.21260  -0.02136   0.00000  -0.01912  -0.02037  -0.23297
    Y5       -0.98361   0.04296   0.00000   0.09190   0.08492  -0.89870
    Z5       -1.53815   0.05843   0.00000   0.10797   0.11255  -1.42561
    X6        0.26697  -0.03941   0.00000  -0.05497  -0.05619   0.21078
    Y6        0.95465  -0.02999   0.00000  -0.05280  -0.05978   0.89486
    Z6        1.53566  -0.05713   0.00000  -0.12104  -0.11647   1.41919
         Item               Value     Threshold  Converged?
 Maximum Force            0.059124     0.000450     NO 
 RMS     Force            0.037849     0.000300     NO 
 Maximum Displacement     0.125835     0.001800     NO 
 RMS     Displacement     0.070626     0.001200     NO 
 Predicted change in Energy=-3.456439D-02
 GradGradGradGradGradGradGradGradGradGradGradGradGradGradGradGradGradGrad


 Test job not archived.
 1\1\GINC-EAM\Force\RTD-LC-BLYP-FC\6-31G(d)\C1H4N1(1+)\DULIKAI\06-Jan-2
 014\0\\# force td(singlet, root=1, nstates=2) lc-blyp/6-31g* scf=(tigh
 t,maxcycle=10000) iop(9/40=20) nosymm pop=full\\[0] [0]\\1,1\C,-3.1712
 841,0.4099593,0.2319336\N,-0.634141,0.0801347,0.0451432\H,-3.5658188,1
 .0653778,1.2352836\H,-3.8585262,-0.109366,-0.6899194\H,-0.1125024,-0.5
 205066,-0.8139564\H,0.1412738,0.5051782,0.8126349\\Version=EM64L-G09Re
 vA.01\HF=-94.2554682\RMSD=5.075e-09\RMSF=3.785e-02\Dipole=-0.151586,0.
 0099737,0.016514\PG=C01 [X(C1H4N1)]\\@


 THERE IS NO SUBJECT, HOWEVER COMPLEX,
 WHICH, IF STUDIED WITH PATIENCE AND INTELLIGIENCE
 WILL NOT BECOME
 MORE COMPLEX
                        QUOTED BY D. GORDON ROHMAN
 Job cpu time:  0 days  0 hours  1 minutes 13.0 seconds.
 File lengths (MBytes):  RWF=      5 Int=      0 D2E=      0 Chk=      1 Scr=      1
 Normal termination of Gaussian 09 at Mon Jan  6 17:24:06 2014.
