 TURBODIR
 /home_soft/soft/x86_64/apps/TURBOMOLE/LICENSE/turbo_license.ctd                                                                                                                                         
 Checking license file: /home_soft/soft/x86_64/apps/TURBOMOLE/LICENSE/turbo_license.ctd
==========================================================
                  license information 
   Version: V5.10                                                  
   Date: 13/05/09                                                  
   Licensee:                                                       
     Dr. Huang Ye                                                  
     Computer Network Information Center, CAS                      
     4 South Zhongguancun Street, Haidian, Beijing, CHINA          
   Nodes: 1189                                                     
==========================================================
 operating system is UNIX !
 hostname is         T3601

   ----> a grad INTEGRAL TASK STATISTICS run will be performed ! <----


 grad(T3601) : TURBOMOLE V5-10 15 Jan 2008 at 16:44:58
 Copyright (C) 2008 University of Karlsruhe


    2012-08-16 19:33:43.119 



                             g r a d - program

                reinhart ahlrichs, hans horn & ansgar schaefer
                 density functional version : oliver treutler


                          quantum chemistry group
                          universitaet  karlsruhe
                                   germany




                                                 
                                 References:     
                                                 
          Density Functional:                              
              O. Treutler and R. Ahlrichs                      
              Efficient Molecular Numerical Integration Schemes
              J. chem. Phys. 102: 346 (1995)                   
          Parallel Version:                                
              Performance of parallel TURBOMOLE for Density    
              Functional Calculations                          
              M. v.Arnim and R. Ahlrichs                      
              J. comp. Chem. 19: 1746 (1998)                   
                                         




              +--------------------------------------------------+
              | Atomic coordinate, charge and isotop information |
              +--------------------------------------------------+


              atomic coordinates              atom shells charge pseudo isotop
    -0.41980656    2.74499427    0.00018708    c      6    6.000    0     0
     1.57753248    0.93955320    0.00034393    c      6    6.000    0     0
     1.02286369   -1.59132560   -0.00009260    c      6    6.000    0     0
    -1.29694964   -2.67444511   -0.00005669    n      6    7.000    0     0
    -3.15968345   -1.07389765   -0.00004535    c      6    6.000    0     0
    -2.79982091    1.47877914    0.00008315    n      6    7.000    0     0
     4.18571432    1.27767443   -0.00003590    n      6    7.000    0     0
     5.15061443   -0.96162899    0.00006992    c      6    6.000    0     0
     3.27335429   -2.81394473    0.00000000    n      6    7.000    0     0
    -5.55611764   -1.92439559   -0.00027023    n      6    7.000    0     0
    -0.39015297    5.03448317   -0.00028535    o      6    8.000    0     0
     7.10483746   -1.42331756    0.00020598    h      3    1.000    0     0
     3.49473955   -4.68148033   -0.00038361    h      3    1.000    0     0
    -4.28165008    2.65195169   -0.00073321    h      3    1.000    0     0
    -7.05112009   -0.78609039    0.00326545    h      3    1.000    0     0
    -5.81798463   -3.78876401   -0.00091085    h      3    1.000    0     0


     center of nuclear mass  :    0.04321477    0.05247304   -0.00000970

     center of nuclear charge:   -0.00000019    0.00000017   -0.00000024


              +--------------------------------------------------+
              |               basis set information              |
              +--------------------------------------------------+


              we will work with the  1s 3p 5d  7f  9g ... basis set
              ...i.e. with spherical basis functions...


   type   atoms  prim   cont   basis
   ---------------------------------------------------------------------------
    c        5     24     14   def2-SVP   [3s2p1d|7s4p1d]
    n        5     24     14   def2-SVP   [3s2p1d|7s4p1d]
    o        1     24     14   def2-SVP   [3s2p1d|7s4p1d]
    h        5      7      5   def2-SVP   [2s1p|4s1p]
   ---------------------------------------------------------------------------
   total:   16    299    179
   ---------------------------------------------------------------------------

   total number of primitive shells          :   41
   total number of contracted shells         :   81
   total number of cartesian basis functions :  190
   total number of SCF-basis functions       :  179


 integral neglect threshold       :  0.18E-09
 integral storage threshold THIZE :  0.10E-04
 integral storage threshold THIME :         5


 symmetry group of the molecule :   c1 

 the group has the following generators :
   c1(z)

    1 symmetry operations found

 there are 1 real representations :   a   

 maximum number of shells which are related by symmetry :  1


  grad preliminaries : cpu elapsed         0.182 s
                       wall                0.181 s

 performing derivative 2e integral batch statistics 


   after task assignment :
         resulting number of tasks =       318
             number of shell pairs =      3321

      WARNING WARNING WARNING WARNING WARNING WARNING WARNING WARNING
      WARNING                                                 WARNING
      WARNING  for data group $2e-ints'_shell_statistics an   WARNING
      WARNING external file reference is highly recommended ! WARNING
      WARNING   writing data onto default file 'metastase'    WARNING
      WARNING                                                 WARNING
      WARNING WARNING WARNING WARNING WARNING WARNING WARNING WARNING


        derivative 2e integral batch statistics
         (resolved for outermost shell pairs)
              ij shells      #non-zero batches 
     ----------------------------------------------
            81    64 ... 81       14544072
            78    48 ... 57       13150530
            80    53 ... 68       12101580
            80    69 ... 80       12060990
            79     7 ... 33       11934066
            78    58 ... 66       11678652
            77    48 ... 57       11564748
            80    28 ... 47       11364384
            79    34 ... 47       11357424
            79    73 ... 79       11282724
            81    43 ... 48       11215404
            81     2 ... 42       11193822
            81    49 ... 63       11151162
            79    59 ... 72       11084706
            79    53 ... 58       10997316
            80    48 ... 52       10805904
            75    44 ... 48       10803852
            78    67 ... 78       10511550
            77    19 ... 43       10476348
            77    65 ... 77       10408698
            78    19 ... 34       10205508
            79    48 ... 52       10204704
            77    58 ... 64        9912798
            76    63 ... 71        9710640
            78    35 ... 47        9706542
            74    52 ... 58        9609138
            73    58 ... 64        9521766
            76    45 ... 49        9478818
            77    44 ... 47        9429660
            76    54 ... 62        9270216
            75    71 ... 75        9228888
            76    72 ... 76        9212580
            75    62 ... 70        9188046
            76    50 ... 53        8994510
            76     9 ... 34        8918370
            75    49 ... 52        8842374
            76    35 ... 44        8717520
            75    10 ... 27        8427030
            75    53 ... 61        8410842
            74    59 ... 64        8378172
            75    28 ... 43        8367288
            72    58 ... 63        8295102
            74    42 ... 47        8274972
            74    65 ... 74        8192340
            74    48 ... 51        8157744
            73    53 ... 57        8103870
            73    46 ... 49        7744572
            74    14 ... 41        7722594
            72    54 ... 57        7691544
            72    49 ... 53        7623774
            74     2 ... 13        7547454
            72    64 ... 72        7531848
            80     1 ... 27        7403742
            73    65 ... 73        7392348
            72    45 ... 48        7379676
            64    46 ... 53        7338546
            73    50 ... 52        7321968
            73    18 ... 34        7266822
            73    35 ... 45        7167642
            71    55 ... 63        7156080
            71     4 ... 19        7060920
            73     5 ... 17        6991026
            72     4 ... 18        6895710
            71    47 ... 51        6848352
            60    58 ... 60        6721083
            72    19 ... 33        6695838
            72    34 ... 44        6595662
            71    64 ... 71        6577272
            71    52 ... 54        6338934
            71    43 ... 46        6255474
            70    13 ... 50        6169671
            69    52 ... 69        6129108
            70    51 ... 70        6080607
            71    20 ... 42        6042048
            68    44 ... 53        6016365
            69    13 ... 51        5990487
            77     1 ... 18        5943432
            78     1 ... 18        5816814
            60    50 ... 55        5780862
            66    22 ... 55        5777457
            68    54 ... 68        5775993
            64    54 ... 58        5690763
            67    36 ... 54        5564148
            66    56 ... 66        5553792
            68     3 ... 43        5378196
            67    55 ... 67        5349141
            65     4 ... 31        5291145
            65    55 ... 65        5277573
            64    44 ... 45        5233950
            65    48 ... 54        5038281
            65    32 ... 47        4963524
            64    31 ... 43        4935645
            62    48 ... 50        4919103
            64     3 ... 30        4908708
            64    59 ... 64        4733154
            62    51 ... 52        4729833
            63     7 ... 32        4656849
            63    47 ... 52        4612878
            63    53 ... 63        4471299
            62    55 ... 62        4470498
            63    33 ... 46        4384074
            67     1 ... 35        4313040
            60    48 ... 49        4238379
            62    53 ... 54        4173957
            62    14 ... 28        4163742
            62    29 ... 41        4151223
            61    49 ... 55        4134150
            61    56 ... 61        4101570
            62    42 ... 47        4056282
            76     1 ... 8         4050876
            60     7 ... 18        4026339
            62     8 ... 13        3903399
            60    36 ... 45        3885210
            60    19 ... 24        3860469
            61    44 ... 48        3825459
            60    46 ... 47        3812022
            58    19 ... 24        3740688
            61    21 ... 43        3733092
            60    56 ... 57        3731481
            58    25 ... 35        3724722
            61     6 ... 20        3648540
            75     1 ... 9         3589164
            56    48 ... 52        3582198
            59    48 ... 53        3490488
            58    55 ... 56        3473091
            60    25 ... 35        3472866
            58    47 ... 48        3453111
            59    36 ... 47        3446292
            58    45 ... 46        3349080
            56    22 ... 32        3325275
            59    54 ... 59        3314259
            59    19 ... 35        3292230
            56    46 ... 47        3292110
            59     4 ... 18        3143409
            56    53 ... 56        3094524
            58    49 ... 54        3089367
            58    36 ... 44        3079251
            58    57 ... 58        3058965
            57    46 ... 50        2955681
            55    44 ... 49        2916468
            58     6 ... 18        2899629
            73     1 ... 4         2863854
            57    51 ... 57        2850129
            57    31 ... 45        2836434
            54    44 ... 45        2798604
            57    13 ... 30        2778690
            56    44 ... 45        2728566
            55    50 ... 55        2728197
            56     4 ... 8         2703744
            56    33 ... 43        2573865
            54    38 ... 43        2561364
            55    28 ... 43        2491968
            54    46 ... 47        2446416
            56     9 ... 21        2403153
            57     1 ... 12        2368326
            64     1 ... 2         2365659
            54    50 ... 51        2335203
            79     1 ... 6         2318106
            53    48 ... 53        2313873
            54    53 ... 54        2313360
            52    10 ... 15        2289402
            54    48 ... 49        2282850
            81     1 ... 1         2262060
            72     1 ... 3         2210622
            52    48 ... 49        2173986
            54    52 ... 52        2159703
            54    28 ... 37        2142315
            60     1 ... 6         2138283
            55    12 ... 27        2133366
            55     1 ... 11        2083020
            54    10 ... 14        2080728
            52    44 ... 45        2046762
            54    15 ... 27        1997829
            53    28 ... 41        1987752
            52    51 ... 52        1932768
            52    46 ... 47        1925829
            53    42 ... 47        1916709
            54     2 ... 9         1914786
            58     1 ... 5         1899324
            52    50 ... 50        1805490
            71     1 ... 3         1754046
            52     4 ... 9         1742364
            53    15 ... 27        1738395
            53     4 ... 14        1699596
            52    30 ... 39        1669410
            52    24 ... 29        1607139
            50    46 ... 47        1593054
            50    49 ... 50        1585548
            52    40 ... 43        1583685
            50    10 ... 13        1569546
            52    16 ... 23        1532673
            66     1 ... 21        1494225
            51     4 ... 15        1462914
            50    48 ... 48        1448118
            51    28 ... 41        1446147
            51    47 ... 51        1380852
            51    16 ... 27        1377921
            50    44 ... 45        1346004
            51    42 ... 46        1340934
            48    44 ... 45        1332099
            61     1 ... 5         1317846
            48    47 ... 48        1261683
            48     7 ... 10        1238742
            50    30 ... 38        1225197
            63     1 ... 6         1224279
            50    39 ... 43        1213650
            50    14 ... 23        1186344
            49     4 ... 14        1164606
            50    24 ... 29        1150668
            48    46 ... 46        1144935
            50     6 ... 9         1123848
            49    45 ... 49        1107918
            49    25 ... 35        1099902
            49    36 ... 44        1096158
            48    25 ... 31        1085931
            65     1 ... 3         1062636
            49    15 ... 24        1016958
            54     1 ... 1         1010115
            48    16 ... 19        1002465
            46    45 ... 46         962928
            48    20 ... 24         948807
            48    11 ... 15         939411
            48    37 ... 43         910305
            46     4 ... 7          905238
            48    32 ... 36         893583
            52     1 ... 3          889524
            48     3 ... 6          885258
            70     1 ... 12         877842
            62     1 ... 7          872244
            46    44 ... 44         859005
            47     1 ... 10         846507
            47    31 ... 42         841443
            47    43 ... 47         778698
            47    20 ... 30         761982
            46    31 ... 35         758313
            46    36 ... 43         746667
            47    11 ... 19         735177
            46    24 ... 30         696222
            46    13 ... 16         686520
            56     1 ... 3          681435
            68     1 ... 2          655737
            44     1 ... 4          649296
            46    20 ... 23         644499
            59     1 ... 3          640242
            46     8 ... 12         627255
            46    17 ... 19         625518
            69     1 ... 12         621288
            50     1 ... 5          598941
            45    36 ... 45         591108
            45    25 ... 35         579948
            44    19 ... 30         574875
            46     1 ... 3          552114
            45    15 ... 24         544053
            44    43 ... 44         539973
            45     5 ... 14         530817
            44    35 ... 42         524367
            44    31 ... 34         504990
            44    10 ... 15         489420
            44    16 ... 18         465066
            44     5 ... 9          464346
            53     1 ... 3          455997
            48     1 ... 2          447660
            43     6 ... 43         426183
            42    16 ... 42         423342
            41     1 ... 41         408295
            40    15 ... 40         389559
            38    16 ... 38         380469
            39     5 ... 39         362025
            37     4 ... 37         336665
            51     1 ... 3          332049
            36    20 ... 36         312495
            38     1 ... 15         307251
            31     1 ... 31         306385
            49     1 ... 3          296403
            34    15 ... 34         290058
            42     1 ... 15         283764
            35     1 ... 35         267262
            45     1 ... 4          263481
            36     1 ... 19         256143
            25     6 ... 25         229545
            28     1 ... 28         229320
            40     1 ... 14         195210
            33     1 ... 33         185529
            22     1 ... 22         164750
            27     1 ... 27         162116
            30     1 ... 30         158227
            24     1 ... 24         115166
            19     1 ... 19         113985
            16     1 ... 16         104825
            26     1 ... 26         103724
            32     1 ... 32         100587
            34     1 ... 14          98742
            29     1 ... 29          90152
            21     1 ... 21          76367
            39     1 ... 4           65489
            23     1 ... 23          64520
            43     1 ... 5           61825
            13     1 ... 13          59500
            18     1 ... 18          56390
            20     1 ... 20          45517
            17     1 ... 17          45260
            15     1 ... 15          33524
            10     1 ... 10          30815
            14     1 ... 14          26800
            37     1 ... 3           25081
            25     1 ... 5           20900
            12     1 ... 12          15820
             7     1 ... 7           14665
            11     1 ... 11          11993
             9     1 ... 9            7111
             8     1 ... 8            5682
             4     1 ... 4            3755
             6     1 ... 6            1795
             5     1 ... 5            1515
            74     1 ... 1               0
             3     1 ... 3               0
             2     1 ... 2               0
             1     1 ... 1               0
     ----------------------------------------------
                    #total    1126768043.


   ***  $2e-ints'_shell_statistics written to file <metastase>  ***

 time needed for gradient task setup :      0.032 seconds

 $statistics flag 'grad' will be switched off !


 cpu time for derivative 2e integral statistics :      0.25 sec


   end of statistics output by subroutine kunz .
                     ***



    ------------------------------------------------------------------------
         total  cpu-time :   0.44 seconds
         total wall-time :   0.44 seconds
    ------------------------------------------------------------------------


   ****  grad : all done  ****


    2012-08-16 19:33:43.538 


 Deallocation failure for xaij in <grad>


 MODTRACE: no modules on stack

  abnormal termination
 grad ended abnormally
