fort.7
USERSCR REMOVED
gamess.dat
----- GAMESS execution script 'rungms' -----
This job is running on host eam
under operating system Linux at Wed Apr 30 16:21:52 CST 2014
Available scratch disk space (Kbyte units) at beginning of the job is
Filesystem     1K-blocks      Used Available Use% Mounted on
/dev/sda3      949976156 233270244 668449864  26% /
GAMESS temporary binary files will be written to /tmp/dulikai
GAMESS supplementary output files will be written to /home/dulikai/tree/shmd/trunk/test/1ps-gms/QC_TMP/GMS_TMP/scr
Copying input file gamess.inp to your run's scratch directory...
cp gamess.inp /tmp/dulikai/gamess.F05
unset echo
READ GMS-FILES.CSH
/home/dulikai/opt/gamess/ddikick.x /home/dulikai/opt/gamess/gamess.06.x gamess -ddi 1 2 eam:cpus=2 -scr /tmp/dulikai

 Distributed Data Interface kickoff program.
 Initiating 2 compute processes on 1 nodes to run the following command:
 /home/dulikai/opt/gamess/gamess.06.x gamess 

          ******************************************************
          *         GAMESS VERSION =  1 MAY 2013 (R1)          *
          *             FROM IOWA STATE UNIVERSITY             *
          * M.W.SCHMIDT, K.K.BALDRIDGE, J.A.BOATZ, S.T.ELBERT, *
          *   M.S.GORDON, J.H.JENSEN, S.KOSEKI, N.MATSUNAGA,   *
          *          K.A.NGUYEN, S.J.SU, T.L.WINDUS,           *
          *       TOGETHER WITH M.DUPUIS, J.A.MONTGOMERY       *
          *         J.COMPUT.CHEM.  14, 1347-1363(1993)        *
          **************** 64 BIT LINUX VERSION ****************

  SINCE 1993, STUDENTS AND POSTDOCS WORKING AT IOWA STATE UNIVERSITY
  AND ALSO IN THEIR VARIOUS JOBS AFTER LEAVING ISU HAVE MADE IMPORTANT
  CONTRIBUTIONS TO THE CODE:
     IVANA ADAMOVIC, CHRISTINE AIKENS, YURI ALEXEEV, POOJA ARORA,
     ANDREY ASADCHEV, ROB BELL, PRADIPTA BANDYOPADHYAY, JONATHAN BENTZ,
     BRETT BODE, GALINA CHABAN, WEI CHEN, CHEOL HO CHOI, PAUL DAY,
     ALBERT DEFUSCO, TIM DUDLEY, DMITRI FEDOROV, GRAHAM FLETCHER,
     MARK FREITAG, KURT GLAESEMANN, DAN KEMP, GRANT MERRILL,
     NORIYUKI MINEZAWA, JONATHAN MULLIN, TAKESHI NAGATA,
     SEAN NEDD, HEATHER NETZLOFF, BOSILJKA NJEGIC, RYAN OLSON, MIKE PAK,
     JIM SHOEMAKER, LYUDMILA SLIPCHENKO, SAROM SOK, JIE SONG,
     TETSUYA TAKETSUGU, SIMON WEBB, SOOHAENG YOO, FEDERICO ZAHARIEV

  ADDITIONAL CODE HAS BEEN PROVIDED BY COLLABORATORS IN OTHER GROUPS:
     IOWA STATE UNIVERSITY:
          JOE IVANIC, LAIMUTIS BYTAUTAS, KLAUS RUEDENBERG
     UNIVERSITY OF TOKYO: KIMIHIKO HIRAO, TAKAHITO NAKAJIMA,
          TAKAO TSUNEDA, MUNEAKI KAMIYA, SUSUMU YANAGISAWA,
          KIYOSHI YAGI, MAHITO CHIBA, SEIKEN TOKURA, NAOAKI KAWAKAMI
     UNIVERSITY OF AARHUS: FRANK JENSEN
     UNIVERSITY OF IOWA: VISVALDAS KAIRYS, HUI LI
     NATIONAL INST. OF STANDARDS AND TECHNOLOGY: WALT STEVENS, DAVID GARMER
     UNIVERSITY OF PISA: BENEDETTA MENNUCCI, JACOPO TOMASI
     UNIVERSITY OF MEMPHIS: HENRY KURTZ, PRAKASHAN KORAMBATH
     UNIVERSITY OF ALBERTA: TOBY ZENG, MARIUSZ KLOBUKOWSKI
     UNIVERSITY OF NEW ENGLAND: MARK SPACKMAN
     MIE UNIVERSITY: HIROAKI UMEDA
     MICHIGAN STATE UNIVERSITY:
          KAROL KOWALSKI, MARTA WLOCH, JEFFREY GOUR, JESSE LUTZ,
          WEI LI, PIOTR PIECUCH
     UNIVERSITY OF SILESIA: MONIKA MUSIAL, STANISLAW KUCHARSKI
     FACULTES UNIVERSITAIRES NOTRE-DAME DE LA PAIX:
          OLIVIER QUINET, BENOIT CHAMPAGNE
     UNIVERSITY OF CALIFORNIA - SANTA BARBARA: BERNARD KIRTMAN
     INSTITUTE FOR MOLECULAR SCIENCE:
          KAZUYA ISHIMURA, MICHIO KATOUDA, AND SHIGERU NAGASE
     UNIVERSITY OF NOTRE DAME: DAN CHIPMAN
     KYUSHU UNIVERSITY:
          HARUYUKI NAKANO,
          FENG LONG GU, JACEK KORCHOWIEC, MARCIN MAKOWSKI, AND YURIKO AOKI,
          HIROTOSHI MORI AND EISAKU MIYOSHI
     PENNSYLVANIA STATE UNIVERSITY:
          TZVETELIN IORDANOV, CHET SWALINA, JONATHAN SKONE,
          SHARON HAMMES-SCHIFFER
     WASEDA UNIVERSITY:
          MASATO KOBAYASHI, TOMOKO AKAMA, TSUGUKI TOUMA,
          TAKESHI YOSHIKAWA, YASUHIRO IKABATA, HIROMI NAKAI
     NANJING UNIVERSITY: SHUHUA LI
     UNIVERSITY OF NEBRASKA:
          PEIFENG SU, DEJUN SI, NANDUN THELLAMUREGE, YALI WANG, HUI LI
     UNIVERSITY OF ZURICH:
          ROBERTO PEVERATI, KIM BALDRIDGE
     N. COPERNICUS UNIVERSITY AND JACKSON STATE UNIVERSITY:
          MARIA BARYSZ


 PARALLEL VERSION RUNNING ON     2 PROCESSORS IN     1 NODES.

 EXECUTION OF GAMESS BEGUN Wed Apr 30 16:21:53 2014

            ECHO OF THE FIRST FEW INPUT CARDS -
 INPUT CARD> $guess  guess=huckel $end                                                      
 INPUT CARD> $basis  gbasis=N31 ngauss=6 diffsp=.T. ndfunc=1 $end                           
 INPUT CARD> $CONTRL SCFTYP=RHF DFTTYP=B3LYP MOLPLT=.FALSE.                                 
 INPUT CARD>         ICHARG=1 TDDFT=EXCITE RUNTYP=GRADIENT NPRINT=3                         
 INPUT CARD>         MULT=1  $END                                                           
 INPUT CARD> $system timlim=4 mwords=100 memddi=200 $end                                    
 INPUT CARD> $TDDFT IROOT=1 TAMMD=.FALSE. NSTATE=2                                          
 INPUT CARD>         MULT=1  $END                                                           
 INPUT CARD> $data                                                                          
 INPUT CARD>energy & gradient..                                                             
 INPUT CARD>C1                                                                              
 INPUT CARD>c            6.0  -3.0429073   0.3912112   0.2236894                            
 INPUT CARD>n            7.0  -0.6888295   0.0858356   0.0500296                            
 INPUT CARD>h            1.0  -3.4912928   0.9882898   1.0615413                            
 INPUT CARD>h            1.0  -3.7409950  -0.0061892  -0.5601758                            
 INPUT CARD>h            1.0  -0.2768851  -0.4396383  -0.7561683                            
 INPUT CARD>h            1.0  -0.0432004   0.5084131   0.7573336                            
 INPUT CARD>$end                                                                            
  100000000 WORDS OF MEMORY AVAILABLE

     BASIS OPTIONS
     -------------
     GBASIS=N31          IGAUSS=       6      POLAR=POPN31  
     NDFUNC=       1     NFFUNC=       0     DIFFSP=       T
     NPFUNC=       0      DIFFS=       F     BASNAM=        


     RUN TITLE
     ---------
 energy & gradient..                                                             

 THE POINT GROUP OF THE MOLECULE IS C1      
 THE ORDER OF THE PRINCIPAL AXIS IS     0

 ATOM      ATOMIC                      COORDINATES (BOHR)
           CHARGE         X                   Y                   Z
 C           6.0    -5.7502610030        0.7392819713        0.4227116724
 N           7.0    -1.3016990073        0.1622057640        0.0945422353
 H           1.0    -6.5975867349        1.8675969185        2.0060221817
 H           1.0    -7.0694554714       -0.0116958921       -1.0585787670
 H           1.0    -0.5232369691       -0.8307959207       -1.4289508876
 H           1.0    -0.0816369186        0.9607614476        1.4311529853

          INTERNUCLEAR DISTANCES (ANGS.)
          ------------------------------

                1 C          2 N          3 H          4 H          5 H     

   1 C       0.0000000    2.3801459 *  1.1222960 *  1.1223628 *  3.0498050  
   2 N       2.3801459 *  0.0000000    3.1130981    3.1139257    1.0467932 *
   3 H       1.1222960 *  3.1130981    0.0000000    1.9186730 *  3.9592251  
   4 H       1.1223628 *  3.1139257    1.9186730 *  0.0000000    3.4966196  
   5 H       3.0498050    1.0467932 *  3.9592251    3.4966196    0.0000000  
   6 H       3.0490579    1.0467510 *  3.4945908    3.9590821    1.8011380 *

                6 H     

   1 C       3.0490579  
   2 N       1.0467510 *
   3 H       3.4945908  
   4 H       3.9590821  
   5 H       1.8011380 *
   6 H       0.0000000  

  * ... LESS THAN  3.000


     ATOMIC BASIS SET
     ----------------
 THE CONTRACTED PRIMITIVE FUNCTIONS HAVE BEEN UNNORMALIZED
 THE CONTRACTED BASIS FUNCTIONS ARE NOW NORMALIZED TO UNITY

  SHELL TYPE  PRIMITIVE        EXPONENT          CONTRACTION COEFFICIENT(S)

 C         

      1   S       1          3047.5248800    0.001834737132
      1   S       2           457.3695180    0.014037322813
      1   S       3           103.9486850    0.068842622264
      1   S       4            29.2101553    0.232184443216
      1   S       5             9.2866630    0.467941348435
      1   S       6             3.1639270    0.362311985337

      2   L       7             7.8682723   -0.119332419775    0.068999066591
      2   L       8             1.8812885   -0.160854151696    0.316423960957
      2   L       9             0.5442493    1.143456437840    0.744308290898

      3   L      10             0.1687145    1.000000000000    1.000000000000

      4   L      11             0.0438000    1.000000000000    1.000000000000

      5   D      12             0.8000000    1.000000000000

 N         

      6   S      13          4173.5114600    0.001834772160
      6   S      14           627.4579110    0.013994627002
      6   S      15           142.9020930    0.068586551812
      6   S      16            40.2343293    0.232240873040
      6   S      17            12.8202129    0.469069948082
      6   S      18             4.3904370    0.360455199063

      7   L      19            11.6263619   -0.114961181702    0.067579743878
      7   L      20             2.7162798   -0.169117478561    0.323907295893
      7   L      21             0.7722184    1.145851947027    0.740895139755

      8   L      22             0.2120315    1.000000000000    1.000000000000

      9   L      23             0.0639000    1.000000000000    1.000000000000

     10   D      24             0.8000000    1.000000000000

 H         

     11   S      25            18.7311370    0.033494604338
     11   S      26             2.8253944    0.234726953484
     11   S      27             0.6401217    0.813757326146

     12   S      28             0.1612778    1.000000000000

 H         

     13   S      29            18.7311370    0.033494604338
     13   S      30             2.8253944    0.234726953484
     13   S      31             0.6401217    0.813757326146

     14   S      32             0.1612778    1.000000000000

 H         

     15   S      33            18.7311370    0.033494604338
     15   S      34             2.8253944    0.234726953484
     15   S      35             0.6401217    0.813757326146

     16   S      36             0.1612778    1.000000000000

 H         

     17   S      37            18.7311370    0.033494604338
     17   S      38             2.8253944    0.234726953484
     17   S      39             0.6401217    0.813757326146

     18   S      40             0.1612778    1.000000000000

 TOTAL NUMBER OF BASIS SET SHELLS             =   18
 NUMBER OF CARTESIAN GAUSSIAN BASIS FUNCTIONS =   46
 NUMBER OF ELECTRONS                          =   16
 CHARGE OF MOLECULE                           =    1
 SPIN MULTIPLICITY                            =    1
 NUMBER OF OCCUPIED ORBITALS (ALPHA)          =    8
 NUMBER OF OCCUPIED ORBITALS (BETA )          =    8
 TOTAL NUMBER OF ATOMS                        =    6
 THE NUCLEAR REPULSION ENERGY IS       27.6748421628

     LEBEDEV GRID-BASED DFT OPTIONS
     ------------------------------
     DFTTYP=B3LYP   
     NRAD  =      96     NLEB  =     302
     NRAD0 =      24     NLEB0 =     110
     SWOFF =    5.00E-03 (PURE SCF -> DFT)
     SWITCH=    3.00E-04 (COARSE -> TIGHT GRID)
     THRESH=    0.00E+00 GTHRE=    1.00E+00

 GRIMME'S EMPIRICAL DISPERSION CORRECTION= F

     $CONTRL OPTIONS
     ---------------
 SCFTYP=RHF          RUNTYP=GRADIENT     EXETYP=RUN     
 MPLEVL=       0     CITYP =NONE         CCTYP =NONE         VBTYP =NONE    
 DFTTYP=B3LYP        TDDFT =EXCITE  
 MULT  =       1     ICHARG=       1     NZVAR =       0     COORD =UNIQUE  
 PP    =NONE         RELWFN=NONE         LOCAL =NONE         NUMGRD=       F
 ISPHER=      -1     NOSYM =       0     MAXIT =      30     UNITS =ANGS    
 PLTORB=       F     MOLPLT=       F     AIMPAC=       F     FRIEND=        
 NPRINT=       3     IREST =       0     GEOM  =INPUT   
 NORMF =       0     NORMP =       0     ITOL  =      20     ICUT  =       9
 INTTYP=BEST         GRDTYP=BEST         QMTTOL= 1.0E-06

     $SYSTEM OPTIONS
     ---------------
  REPLICATED MEMORY=   100000000 WORDS (ON EVERY NODE).
 DISTRIBUTED MEMDDI=         200 MILLION WORDS IN AGGREGATE,
 MEMDDI DISTRIBUTED OVER   2 PROCESSORS IS   100000000 WORDS/PROCESSOR.
 TOTAL MEMORY REQUESTED ON EACH PROCESSOR=   200000000 WORDS.
 TIMLIM=           4.00 MINUTES, OR       0.0 DAYS.
 PARALL= T  BALTYP=  DLB     KDIAG=    0  COREFL= F
 MXSEQ2=     300 MXSEQ3=     150

          ----------------
          PROPERTIES INPUT
          ----------------

     MOMENTS            FIELD           POTENTIAL          DENSITY
 IEMOM =       1   IEFLD =       0   IEPOT =       0   IEDEN =       0
 WHERE =COMASS     WHERE =NUCLEI     WHERE =NUCLEI     WHERE =NUCLEI  
 OUTPUT=BOTH       OUTPUT=BOTH       OUTPUT=BOTH       OUTPUT=BOTH    
 IEMINT=       0   IEFINT=       0                     IEDINT=       0
                                                       MORB  =       0
          EXTRAPOLATION IN EFFECT
          DIIS IN EFFECT
 ORBITAL PRINTING OPTION: NPREO=     1    46     2     1

     -------------------------------
     INTEGRAL TRANSFORMATION OPTIONS
     -------------------------------
     NWORD  =            0
     CUTOFF = 1.0E-09     MPTRAN =       0
     DIRTRF =       F     AOINTS =DUP     

          ----------------------
          INTEGRAL INPUT OPTIONS
          ----------------------
 NOPK  =       1 NORDER=       0 SCHWRZ=       T

          ----------------------
          TDDFT INPUT PARAMETERS
          ----------------------
 NSTATE=       2  IROOT=       1   MULT=       1
 MAXVEC=      50 NTRIAL=       5 CNVTOL=  1.00E-07
 TDPRP =       F
   NRAD=      48   NLEB=     110

     ------------------------------------------
     THE POINT GROUP IS C1 , NAXIS= 0, ORDER= 1
     ------------------------------------------

     DIMENSIONS OF THE SYMMETRY SUBSPACES ARE
 A   =   46

 ..... DONE SETTING UP THE RUN .....
 CPU     0: STEP CPU TIME=     0.01 TOTAL CPU TIME=        0.0 (    0.0 MIN)
 TOTAL WALL CLOCK TIME=        0.0 SECONDS, CPU UTILIZATION IS  33.33%

                    --------------------------------
                    SINGLE POINT ENERGY AND GRADIENT
                    --------------------------------

          ********************
          1 ELECTRON INTEGRALS
          ********************
 OVERLAP MATRIX

                      1          2          3          4          5

    1  C  1  S    1.000000
    2  C  1  S    0.219059   1.000000
    3  C  1  X   -0.000000  -0.000000   1.000000
    4  C  1  Y    0.000000   0.000000  -0.000000   1.000000
    5  C  1  Z    0.000000   0.000000  -0.000000   0.000000   1.000000
    6  C  1  S    0.184261   0.812273  -0.000000  -0.000000   0.000000
    7  C  1  X    0.000000  -0.000000   0.569754  -0.000000  -0.000000
    8  C  1  Y   -0.000000   0.000000  -0.000000   0.569754   0.000000
    9  C  1  Z   -0.000000   0.000000  -0.000000   0.000000   0.569754
   10  C  1  S    0.069772   0.402091   0.000000  -0.000000   0.000000
   11  C  1  X   -0.000000  -0.000000   0.164679   0.000000   0.000000
   12  C  1  Y    0.000000   0.000000   0.000000   0.164679   0.000000
   13  C  1  Z    0.000000   0.000000   0.000000   0.000000   0.164679
   14  C  1 XX    0.079103   0.710235  -0.000000  -0.000000  -0.000000
   15  C  1 YY    0.079103   0.710235  -0.000000  -0.000000  -0.000000
   16  C  1 ZZ    0.079103   0.710235  -0.000000  -0.000000  -0.000000
   17  C  1 XY   -0.000000   0.000000  -0.000000  -0.000000   0.000000
   18  C  1 XZ   -0.000000   0.000000  -0.000000   0.000000  -0.000000
   19  C  1 YZ    0.000000  -0.000000   0.000000  -0.000000  -0.000000
   20  N  2  S    0.000000   0.000015   0.000060  -0.000008  -0.000004
   21  N  2  S    0.000001   0.001991   0.004997  -0.000648  -0.000369
   22  N  2  X   -0.000005  -0.004247  -0.009946   0.001400   0.000796
   23  N  2  Y    0.000001   0.000551   0.001400   0.000665  -0.000103
   24  N  2  Z    0.000000   0.000313   0.000796  -0.000103   0.000788
   25  N  2  S    0.003588   0.042512   0.057239  -0.007425  -0.004223
   26  N  2  X   -0.014025  -0.123821  -0.143791   0.022278   0.012669
   27  N  2  Y    0.001819   0.016062   0.022278   0.025053  -0.001643
   28  N  2  Z    0.001035   0.009134   0.012669  -0.001643   0.027008
   29  N  2  S    0.025719   0.160390   0.085553  -0.011098  -0.006311
   30  N  2  X   -0.057033  -0.320685  -0.097437   0.022509   0.012800
   31  N  2  Y    0.007398   0.041600   0.022509   0.073159  -0.001660
   32  N  2  Z    0.004207   0.023657   0.012800  -0.001660   0.075135
   33  N  2 XX    0.000017   0.010568   0.023376  -0.003524  -0.002004
   34  N  2 YY    0.000000   0.001249   0.003187   0.000078  -0.000235
   35  N  2 ZZ    0.000000   0.001141   0.002909  -0.000377   0.000065
   36  N  2 XY   -0.000004  -0.002130  -0.005054  -0.002572   0.000404
   37  N  2 XZ   -0.000002  -0.001211  -0.002874   0.000404  -0.003053
   38  N  2 YZ    0.000000   0.000157   0.000404   0.000190   0.000396
   39  H  3  S    0.028350   0.253792  -0.139407   0.185637   0.260496
   40  H  3  S    0.088610   0.461540  -0.105829   0.140924   0.197752
   41  H  4  S    0.028341   0.253752  -0.217003  -0.123533  -0.243667
   42  H  4  S    0.088603   0.461510  -0.164753  -0.093789  -0.184997
   43  H  5  S    0.000000   0.000053   0.000144  -0.000043  -0.000051
   44  H  5  S    0.001014   0.013569   0.017257  -0.005184  -0.006113
   45  H  6  S    0.000000   0.000053   0.000157   0.000006   0.000028
   46  H  6  S    0.001017   0.013596   0.018754   0.000733   0.003336

                      6          7          8          9         10

    6  C  1  S    1.000000
    7  C  1  X    0.000000   1.000000
    8  C  1  Y    0.000000   0.000000   1.000000
    9  C  1  Z    0.000000   0.000000   0.000000   1.000000
   10  C  1  S    0.727666   0.000000   0.000000   0.000000   1.000000
   11  C  1  X    0.000000   0.588690   0.000000   0.000000   0.000000
   12  C  1  Y    0.000000   0.000000   0.588690   0.000000  -0.000000
   13  C  1  Z    0.000000   0.000000   0.000000   0.588690  -0.000000
   14  C  1 XX    0.629936  -0.000000   0.000000   0.000000   0.323540
   15  C  1 YY    0.629936  -0.000000   0.000000   0.000000   0.323540
   16  C  1 ZZ    0.629936  -0.000000   0.000000   0.000000   0.323540
   17  C  1 XY   -0.000000   0.000000  -0.000000  -0.000000  -0.000000
   18  C  1 XZ   -0.000000   0.000000  -0.000000  -0.000000  -0.000000
   19  C  1 YZ    0.000000  -0.000000   0.000000   0.000000   0.000000
   20  N  2  S    0.005268   0.018742  -0.002431  -0.001383   0.022720
   21  N  2  S    0.044124   0.131095  -0.017006  -0.009671   0.139053
   22  N  2  X   -0.046103  -0.114699   0.018152   0.010323  -0.044754
   23  N  2  Y    0.005981   0.018152   0.022876  -0.001339   0.005806
   24  N  2  Z    0.003401   0.010323  -0.001339   0.024470   0.003302
   25  N  2  S    0.148005   0.301209  -0.039073  -0.022220   0.313747
   26  N  2  X   -0.268685  -0.399763   0.070933   0.040338  -0.220064
   27  N  2  Y    0.034854   0.070933   0.137843  -0.005233   0.028547
   28  N  2  Z    0.019821   0.040338  -0.005233   0.144068   0.016234
   29  N  2  S    0.330280   0.331567  -0.043012  -0.024460   0.575613
   30  N  2  X   -0.538763  -0.246013   0.070162   0.039899  -0.526488
   31  N  2  Y    0.069889   0.070162   0.285749  -0.005176   0.068297
   32  N  2  Z    0.039744   0.039899  -0.005176   0.291907   0.038839
   33  N  2 XX    0.081320   0.197567  -0.031837  -0.018105   0.152230
   34  N  2 YY    0.038332   0.115686  -0.008799  -0.008534   0.139874
   35  N  2 ZZ    0.037834   0.114184  -0.014812  -0.004893   0.139731
   36  N  2 XY   -0.009824  -0.024273  -0.037600   0.002187  -0.002824
   37  N  2 XZ   -0.005587  -0.013803   0.002187  -0.040203  -0.001606
   38  N  2 YZ    0.000725   0.002187   0.002774   0.005215   0.000208
   39  H  3  S    0.364164  -0.204597   0.272446   0.382310   0.256175
   40  H  3  S    0.689863  -0.234687   0.312514   0.438536   0.635576
   41  H  4  S    0.364137  -0.318512  -0.181320  -0.357650   0.256169
   42  H  4  S    0.689832  -0.365367  -0.207992  -0.410261   0.635564
   43  H  5  S    0.007448   0.025564  -0.007679  -0.009056   0.078482
   44  H  5  S    0.064621   0.135615  -0.040736  -0.048041   0.236357
   45  H  6  S    0.007465   0.027784   0.001086   0.004943   0.078535
   46  H  6  S    0.064708   0.147270   0.005754   0.026199   0.236489

                     11         12         13         14         15

   11  C  1  X    1.000000
   12  C  1  Y   -0.000000   1.000000
   13  C  1  Z   -0.000000   0.000000   1.000000
   14  C  1 XX   -0.000000   0.000000   0.000000   1.000000
   15  C  1 YY   -0.000000   0.000000   0.000000   0.333333   1.000000
   16  C  1 ZZ   -0.000000   0.000000   0.000000   0.333333   0.333333
   17  C  1 XY    0.000000  -0.000000  -0.000000   0.000000   0.000000
   18  C  1 XZ    0.000000  -0.000000  -0.000000   0.000000   0.000000
   19  C  1 YZ   -0.000000   0.000000   0.000000   0.000000   0.000000
   20  N  2  S    0.042010  -0.005450  -0.003099   0.000008   0.000000
   21  N  2  S    0.244212  -0.031680  -0.018015   0.003793   0.000297
   22  N  2  X   -0.031080   0.010268   0.005839  -0.008668  -0.000767
   23  N  2  Y    0.010268   0.046739  -0.000757   0.001278  -0.000054
   24  N  2  Z    0.005839  -0.000757   0.047640   0.000727   0.000057
   25  N  2  S    0.484186  -0.062810  -0.035718   0.062268   0.023243
   26  N  2  X   -0.103241   0.044055   0.025053  -0.162902  -0.075274
   27  N  2  Y    0.044055   0.230655  -0.003250   0.026159   0.004737
   28  N  2  Z    0.025053  -0.003250   0.234522   0.014876   0.005553
   29  N  2  S    0.635920  -0.082493  -0.046912   0.145201   0.122704
   30  N  2  X   -0.016149   0.075453   0.042908  -0.261713  -0.255555
   31  N  2  Y    0.075453   0.555711  -0.005566   0.039229   0.027872
   32  N  2  Z    0.042908  -0.005566   0.562334   0.022309   0.018852
   33  N  2 XX    0.241745  -0.034862  -0.019825   0.022637   0.002174
   34  N  2 YY    0.246930  -0.028530  -0.018216   0.002174   0.000259
   35  N  2 ZZ    0.246677  -0.031999  -0.016206   0.001864   0.000140
   36  N  2 XY   -0.001952  -0.022734   0.000368  -0.005380   0.000266
   37  N  2 XZ   -0.001110   0.000368  -0.023172  -0.003060  -0.000261
   38  N  2 YZ    0.000368   0.001677   0.003006   0.000450  -0.000020
   39  H  3  S   -0.085462   0.113802   0.159693   0.158872   0.198812
   40  H  3  S   -0.177272   0.236059   0.331250   0.352653   0.362851
   41  H  4  S   -0.133052  -0.075742  -0.149400   0.232375   0.147763
   42  H  4  S   -0.275989  -0.157112  -0.309901   0.371406   0.349799
   43  H  5  S    0.161470  -0.048502  -0.057200   0.000064   0.000009
   44  H  5  S    0.406673  -0.122155  -0.144063   0.017825   0.008151
   45  H  6  S    0.175229   0.006846   0.031173   0.000074   0.000004
   46  H  6  S    0.441278   0.017241   0.078503   0.019740   0.007226

                     16         17         18         19         20

   16  C  1 ZZ    1.000000
   17  C  1 XY    0.000000   1.000000
   18  C  1 XZ    0.000000   0.000000   1.000000
   19  C  1 YZ    0.000000   0.000000   0.000000   1.000000
   20  N  2  S    0.000000  -0.000002  -0.000001   0.000000   1.000000
   21  N  2  S    0.000257  -0.000799  -0.000454   0.000059   0.222216
   22  N  2  X   -0.000662   0.001943   0.001105  -0.000153   0.000000
   23  N  2  Y    0.000086   0.000757  -0.000153  -0.000056  -0.000000
   24  N  2  Z   -0.000039  -0.000153   0.000939  -0.000122  -0.000000
   25  N  2  S    0.022791  -0.008918  -0.005072   0.000658   0.171869
   26  N  2  X   -0.073810   0.024528   0.013949  -0.002131   0.000000
   27  N  2  Y    0.009575   0.029816  -0.002131  -0.002199   0.000000
   28  N  2  Z    0.002586  -0.002131   0.032351  -0.004197   0.000000
   29  N  2  S    0.122443  -0.005141  -0.002924   0.000379   0.072359
   30  N  2  X   -0.255012   0.006136   0.003489  -0.000790  -0.000000
   31  N  2  Y    0.033081   0.033855  -0.000790  -0.002498  -0.000000
   32  N  2  Z    0.015810  -0.000790   0.034795  -0.004514  -0.000000
   33  N  2 XX    0.001864  -0.005380  -0.003060   0.000450   0.050413
   34  N  2 YY    0.000140   0.000266  -0.000261  -0.000020   0.050413
   35  N  2 ZZ    0.000289  -0.000394   0.000189  -0.000024   0.050413
   36  N  2 XY   -0.000394  -0.003329   0.000687   0.000262  -0.000000
   37  N  2 XZ    0.000189   0.000687  -0.004146   0.000574  -0.000000
   38  N  2 YZ   -0.000024   0.000262   0.000574   0.000205   0.000000
   39  H  3  S    0.287577  -0.119137  -0.167179   0.222619   0.000000
   40  H  3  S    0.385516  -0.030420  -0.042687   0.056843   0.000614
   41  H  4  S    0.265028   0.123426   0.243457   0.138593   0.000000
   42  H  4  S    0.379745   0.031520   0.062173   0.035393   0.000613
   43  H  5  S    0.000011  -0.000031  -0.000037   0.000011   0.030020
   44  H  5  S    0.008526  -0.005532  -0.006524   0.001960   0.076541
   45  H  6  S    0.000006   0.000005   0.000022   0.000001   0.030025
   46  H  6  S    0.007604   0.000848   0.003862   0.000151   0.076545

                     21         22         23         24         25

   21  N  2  S    1.000000
   22  N  2  X   -0.000000   1.000000
   23  N  2  Y    0.000000  -0.000000   1.000000
   24  N  2  Z    0.000000  -0.000000   0.000000   1.000000
   25  N  2  S    0.775507   0.000000   0.000000   0.000000   1.000000
   26  N  2  X   -0.000000   0.519296   0.000000  -0.000000   0.000000
   27  N  2  Y    0.000000   0.000000   0.519296   0.000000   0.000000
   28  N  2  Z    0.000000  -0.000000   0.000000   0.519296   0.000000
   29  N  2  S    0.409558   0.000000   0.000000   0.000000   0.774942
   30  N  2  X    0.000000   0.168972  -0.000000  -0.000000   0.000000
   31  N  2  Y   -0.000000  -0.000000   0.168972   0.000000   0.000000
   32  N  2  Z   -0.000000  -0.000000   0.000000   0.168972   0.000000
   33  N  2 XX    0.636041   0.000000   0.000000  -0.000000   0.670250
   34  N  2 YY    0.636041   0.000000   0.000000  -0.000000   0.670250
   35  N  2 ZZ    0.636041   0.000000   0.000000   0.000000   0.670250
   36  N  2 XY    0.000000   0.000000   0.000000   0.000000   0.000000
   37  N  2 XZ    0.000000  -0.000000   0.000000   0.000000  -0.000000
   38  N  2 YZ    0.000000   0.000000  -0.000000   0.000000   0.000000
   39  H  3  S    0.000005  -0.000014   0.000004   0.000005   0.002736
   40  H  3  S    0.007119  -0.008263   0.002661   0.002982   0.041411
   41  H  4  S    0.000005  -0.000015  -0.000000  -0.000003   0.002728
   42  H  4  S    0.007101  -0.008977  -0.000271  -0.001795   0.041341
   43  H  5  S    0.239263   0.120509  -0.153720  -0.235842   0.391715
   44  H  5  S    0.410962   0.076617  -0.097732  -0.149943   0.689051
   45  H  6  S    0.239290   0.188894   0.123635   0.206938   0.391735
   46  H  6  S    0.410979   0.120084   0.078598   0.131556   0.689071

                     26         27         28         29         30

   26  N  2  X    1.000000
   27  N  2  Y    0.000000   1.000000
   28  N  2  Z    0.000000   0.000000   1.000000
   29  N  2  S    0.000000   0.000000   0.000000   1.000000
   30  N  2  X    0.653805   0.000000   0.000000   0.000000   1.000000
   31  N  2  Y    0.000000   0.653805   0.000000   0.000000   0.000000
   32  N  2  Z    0.000000   0.000000   0.653805   0.000000   0.000000
   33  N  2 XX    0.000000   0.000000  -0.000000   0.404938  -0.000000
   34  N  2 YY    0.000000   0.000000  -0.000000   0.404938   0.000000
   35  N  2 ZZ    0.000000   0.000000   0.000000   0.404938   0.000000
   36  N  2 XY    0.000000   0.000000   0.000000   0.000000   0.000000
   37  N  2 XZ   -0.000000   0.000000   0.000000   0.000000   0.000000
   38  N  2 YZ    0.000000  -0.000000   0.000000   0.000000   0.000000
   39  H  3  S   -0.010108   0.003255   0.003648   0.051902  -0.127177
   40  H  3  S   -0.087255   0.028098   0.031493   0.175661  -0.336856
   41  H  4  S   -0.010977  -0.000331  -0.002194   0.051846  -0.138360
   42  H  4  S   -0.094869  -0.002860  -0.018967   0.175513  -0.366561
   43  H  5  S    0.216260  -0.275859  -0.423232   0.312680   0.112719
   44  H  5  S    0.213415  -0.272231  -0.417665   0.715790   0.201768
   45  H  6  S    0.338955   0.221853   0.371334   0.312686   0.176664
   46  H  6  S    0.334489   0.218930   0.366441   0.715801   0.316230

                     31         32         33         34         35

   31  N  2  Y    1.000000
   32  N  2  Z    0.000000   1.000000
   33  N  2 XX    0.000000   0.000000   1.000000
   34  N  2 YY    0.000000   0.000000   0.333333   1.000000
   35  N  2 ZZ    0.000000   0.000000   0.333333   0.333333   1.000000
   36  N  2 XY    0.000000   0.000000   0.000000   0.000000   0.000000
   37  N  2 XZ    0.000000   0.000000   0.000000   0.000000   0.000000
   38  N  2 YZ    0.000000   0.000000   0.000000   0.000000   0.000000
   39  H  3  S    0.040954   0.045903   0.000040   0.000006   0.000007
   40  H  3  S    0.108475   0.121584   0.015019   0.006904   0.007145
   41  H  4  S   -0.004172  -0.027662   0.000046   0.000002   0.000004
   42  H  4  S   -0.011052  -0.073285   0.016663   0.005960   0.006379
   43  H  5  S   -0.143783  -0.220596   0.187873   0.222550   0.344359
   44  H  5  S   -0.257374  -0.394871   0.379226   0.386777   0.413304
   45  H  6  S    0.115630   0.193540   0.268433   0.190787   0.295625
   46  H  6  S    0.206979   0.346439   0.396779   0.379871   0.402701

                     36         37         38         39         40

   36  N  2 XY    1.000000
   37  N  2 XZ    0.000000   1.000000
   38  N  2 YZ    0.000000   0.000000   1.000000
   39  H  3  S   -0.000021  -0.000023   0.000008   1.000000
   40  H  3  S   -0.005050  -0.005660   0.001823   0.658292   1.000000
   41  H  4  S    0.000002   0.000015   0.000000   0.010132   0.117362
   42  H  4  S    0.000559   0.003710   0.000112   0.117362   0.346423
   43  H  5  S   -0.122166  -0.187431   0.239086   0.000000   0.000446
   44  H  5  S   -0.026605  -0.040818   0.052067   0.000446   0.010954
   45  H  6  S    0.153995   0.257755   0.168706   0.000001   0.002217
   46  H  6  S    0.033534   0.056128   0.036737   0.002217   0.029697

                     41         42         43         44         45

   41  H  4  S    1.000000
   42  H  4  S    0.658292   1.000000
   43  H  5  S    0.000001   0.002202   1.000000
   44  H  5  S    0.002202   0.029576   0.658292   1.000000
   45  H  6  S    0.000000   0.000446   0.016871   0.143971   1.000000
   46  H  6  S    0.000446   0.010958   0.143971   0.392903   0.658292

                     46

   46  H  6  S    1.000000
 BARE NUCLEUS HAMILTONIAN INTEGRALS (H=T+V)

                      1          2          3          4          5

    1  C  1  S  -20.791550
    2  C  1  S   -4.283960  -7.633423
    3  C  1  X   -0.016318  -0.120616  -6.952218
    4  C  1  Y    0.001125   0.008601   0.010062  -6.856105
    5  C  1  Z    0.001795   0.013098  -0.007169  -0.064280  -6.917865
    6  C  1  S   -3.687410  -6.131635  -0.132111   0.010458   0.013731
    7  C  1  X   -0.002741  -0.097332  -3.664086   0.011238  -0.004876
    8  C  1  Y    0.000189   0.007864   0.011238  -3.561400  -0.056448
    9  C  1  Z    0.000301   0.010022  -0.004876  -0.056448  -3.615249
   10  C  1  S   -1.398288  -2.970026  -0.079944   0.006804   0.008026
   11  C  1  X   -0.000552  -0.031459  -1.063113   0.004050  -0.001103
   12  C  1  Y    0.000038   0.002732   0.004050  -1.027079  -0.017139
   13  C  1  Z    0.000061   0.003126  -0.001103  -0.017139  -1.043326
   14  C  1 XX   -1.575245  -5.102249  -0.205499   0.013678   0.019896
   15  C  1 YY   -1.572754  -5.022312  -0.052355   0.009980  -0.002739
   16  C  1 ZZ   -1.574446  -5.074994  -0.027090  -0.003253   0.013737
   17  C  1 XY    0.000445   0.014403   0.023691  -0.090682   0.039770
   18  C  1 XZ   -0.000358  -0.010850   0.034460   0.039770  -0.046922
   19  C  1 YZ   -0.003046  -0.094894   0.039770  -0.004743  -0.005635
   20  N  2  S   -0.000000  -0.000434  -0.001665   0.000216   0.000123
   21  N  2  S   -0.000029  -0.020303  -0.048641   0.006308   0.003590
   22  N  2  X    0.000117   0.040260   0.089157  -0.012574  -0.007157
   23  N  2  Y   -0.000015  -0.005225  -0.012586  -0.006170   0.000920
   24  N  2  Z   -0.000009  -0.002968  -0.007150   0.000919  -0.007283
   25  N  2  S   -0.072480  -0.325557  -0.408393   0.052838   0.030208
   26  N  2  X    0.282493   0.934320   0.993046  -0.152586  -0.087429
   27  N  2  Y   -0.036649  -0.121317  -0.153156  -0.166563   0.010585
   28  N  2  Z   -0.020838  -0.068858  -0.087098   0.010501  -0.180673
   29  N  2  S   -0.515966  -1.199651  -0.597305   0.076404   0.044699
   30  N  2  X    1.143234   2.390407   0.690401  -0.150100  -0.089035
   31  N  2  Y   -0.148317  -0.310573  -0.152527  -0.462985   0.006186
   32  N  2  Z   -0.084328  -0.176054  -0.087606   0.005822  -0.481156
   33  N  2 XX   -0.000416  -0.094326  -0.194565   0.029391   0.016733
   34  N  2 YY   -0.000011  -0.012631  -0.030526  -0.000205   0.002248
   35  N  2 ZZ   -0.000007  -0.011694  -0.028279   0.003665  -0.000280
   36  N  2 XY    0.000093   0.018679   0.041238   0.021964  -0.003282
   37  N  2 XZ    0.000053   0.010607   0.023419  -0.003274   0.025927
   38  N  2 YZ   -0.000007  -0.001396  -0.003359  -0.001616  -0.003363
   39  H  3  S   -0.570337  -1.839940   0.887704  -1.206797  -1.694513
   40  H  3  S   -1.774317  -3.415395   0.605208  -0.894507  -1.257256
   41  H  4  S   -0.570162  -1.839549   1.392945   0.806451   1.588463
   42  H  4  S   -1.774167  -3.415084   0.981917   0.605985   1.189601
   43  H  5  S   -0.000000  -0.000625  -0.001645   0.000474   0.000550
   44  H  5  S   -0.020506  -0.104144  -0.124810   0.036086   0.042002
   45  H  6  S   -0.000000  -0.000627  -0.001782  -0.000050  -0.000288
   46  H  6  S   -0.020558  -0.104351  -0.134948  -0.003962  -0.021975

                      6          7          8          9         10

    6  C  1  S   -6.448907
    7  C  1  X   -0.314782  -5.097387
    8  C  1  Y    0.032869   0.046380  -4.714924
    9  C  1  Z    0.027982   0.007620  -0.097075  -4.803172
   10  C  1  S   -4.148101  -0.413603   0.047362   0.034273  -4.332677
   11  C  1  X   -0.210739  -2.811014   0.039454   0.014472  -0.599487
   12  C  1  Y    0.024132   0.039454  -2.497352  -0.043590   0.073487
   13  C  1  Z    0.017463   0.014472  -0.043590  -2.533976   0.046784
   14  C  1 XX   -4.400610  -0.190705   0.014378   0.019357  -2.242655
   15  C  1 YY   -4.307294  -0.045154   0.009408  -0.003652  -2.188125
   16  C  1 ZZ   -4.363977  -0.020004  -0.003391   0.010807  -2.219273
   17  C  1 XY    0.017149   0.024904  -0.078210   0.039327   0.010159
   18  C  1 XZ   -0.010753   0.033527   0.039327  -0.034648  -0.005499
   19  C  1 YZ   -0.102370   0.039327  -0.006326  -0.005873  -0.056373
   20  N  2  S   -0.139143  -0.494237   0.064111   0.036461  -0.598258
   21  N  2  S   -0.397217  -1.179120   0.152859   0.087041  -1.251289
   22  N  2  X    0.368184   0.901956  -0.142248  -0.081122   0.358875
   23  N  2  Y   -0.047919  -0.142825  -0.175896   0.009482  -0.047375
   24  N  2  Z   -0.027068  -0.080784   0.009396  -0.189469  -0.025984
   25  N  2  S   -0.991570  -2.014468   0.260838   0.148887  -2.033177
   26  N  2  X    1.690057   2.350131  -0.405634  -0.232331   1.322963
   27  N  2  Y   -0.219779  -0.407611  -0.728143   0.025861  -0.173555
   28  N  2  Z   -0.124361  -0.231182   0.025566  -0.767980  -0.096444
   29  N  2  S   -1.993440  -1.962572   0.252573   0.145962  -2.882284
   30  N  2  X    3.206688   1.426074  -0.356645  -0.209512   2.600840
   31  N  2  Y   -0.417218  -0.361177  -1.299216   0.013467  -0.339872
   32  N  2  Z   -0.235829  -0.206851   0.012788  -1.343563  -0.190391
   33  N  2 XX   -0.599831  -1.438718   0.226881   0.129206  -1.140737
   34  N  2 YY   -0.297240  -0.880344   0.073636   0.064914  -1.025947
   35  N  2 ZZ   -0.295255  -0.875693   0.113505   0.041794  -1.036793
   36  N  2 XY    0.069086   0.163333   0.243602  -0.014394   0.024310
   37  N  2 XZ    0.038679   0.090981  -0.014105   0.261415   0.010644
   38  N  2 YZ   -0.007897  -0.024628  -0.016693  -0.033293  -0.023858
   39  H  3  S   -2.220410   1.054632  -1.436886  -2.018186  -1.449578
   40  H  3  S   -4.070666   0.913356  -1.417166  -1.999475  -3.074383
   41  H  4  S   -2.220057   1.656547   0.961119   1.892232  -1.449406
   42  H  4  S   -4.070263   1.513446   0.972848   1.897908  -3.074063
   43  H  5  S   -0.061316  -0.205724   0.056922   0.064888  -0.515181
   44  H  5  S   -0.420155  -0.890552   0.235941   0.264024  -1.317219
   45  H  6  S   -0.061435  -0.221123  -0.003831  -0.032150  -0.515526
   46  H  6  S   -0.420680  -0.951366  -0.006294  -0.122851  -1.317922

                     11         12         13         14         15

   11  C  1  X   -3.714990
   12  C  1  Y    0.076416  -3.120189
   13  C  1  Z    0.038211  -0.036118  -3.143466
   14  C  1 XX   -0.060325   0.004621   0.005934  -5.752599
   15  C  1 YY   -0.014061   0.003121  -0.001070  -2.599992  -5.571884
   16  C  1 ZZ   -0.006523  -0.000911   0.003292  -2.626435  -2.595178
   17  C  1 XY    0.008004  -0.024355   0.011728   0.012115   0.019533
   18  C  1 XZ    0.010278   0.011728  -0.011298  -0.019032   0.001769
   19  C  1 YZ    0.011728  -0.001853  -0.001577  -0.044388  -0.091312
   20  N  2  S   -1.105748   0.143433   0.081575  -0.000243  -0.000006
   21  N  2  S   -2.197419   0.284790   0.162261  -0.039933  -0.003538
   22  N  2  X    0.258919  -0.081090  -0.046718   0.083628   0.008528
   23  N  2  Y   -0.082618  -0.352708   0.001907  -0.012394   0.000434
   24  N  2  Z   -0.045805   0.001676  -0.364061  -0.007045  -0.000628
   25  N  2  S   -3.142132   0.406723   0.232317  -0.446236  -0.175677
   26  N  2  X    0.691517  -0.238433  -0.138003   1.128995   0.551910
   27  N  2  Y   -0.242040  -1.109119   0.004255  -0.178694  -0.039641
   28  N  2  Z   -0.135861   0.003711  -1.143541  -0.101568  -0.040650
   29  N  2  S   -3.157913   0.407593   0.234178  -1.027275  -0.845907
   30  N  2  X    0.319106  -0.303348  -0.177746   1.841299   1.739859
   31  N  2  Y   -0.307977  -1.985290   0.005005  -0.271748  -0.193668
   32  N  2  Z   -0.175004   0.004308  -2.029434  -0.153798  -0.128725
   33  N  2 XX   -1.810192   0.257190   0.145880  -0.203562  -0.023085
   34  N  2 YY   -1.798802   0.209778   0.133186  -0.023242  -0.002986
   35  N  2 ZZ   -1.821194   0.236360   0.122165  -0.020490  -0.001746
   36  N  2 XY    0.018602   0.147866  -0.006344   0.047746  -0.001922
   37  N  2 XZ    0.004000  -0.005576   0.148474   0.027134   0.002735
   38  N  2 YZ   -0.047429  -0.004731  -0.015980  -0.004041   0.000139
   39  H  3  S    0.425104  -0.578945  -0.813203  -1.122813  -1.357544
   40  H  3  S    0.570924  -0.894182  -1.263631  -2.421872  -2.462144
   41  H  4  S    0.667658   0.387281   0.762425  -1.533567  -1.069861
   42  H  4  S    0.950212   0.616348   1.199572  -2.527887  -2.385021
   43  H  5  S   -1.035426   0.292581   0.336600  -0.000817  -0.000120
   44  H  5  S   -2.220142   0.585405   0.653604  -0.131316  -0.060912
   45  H  6  S   -1.114544  -0.025394  -0.171115  -0.000950  -0.000056
   46  H  6  S   -2.368805  -0.012846  -0.301638  -0.143981  -0.054836

                     16         17         18         19         20

   16  C  1 ZZ   -5.685016
   17  C  1 XY    0.006554  -4.599977
   18  C  1 XZ   -0.011461  -0.076883  -4.679306
   19  C  1 YZ   -0.115720   0.003064   0.011352  -4.585534
   20  N  2  S   -0.000003   0.000054   0.000031  -0.000004 -27.128403
   21  N  2  S   -0.003119   0.008314   0.004731  -0.000616  -5.718134
   22  N  2  X    0.007526  -0.018536  -0.010548   0.001474   0.007356
   23  N  2  Y   -0.000976  -0.007708   0.001460   0.000569  -0.001683
   24  N  2  Z    0.000322   0.001458  -0.009460   0.001227  -0.000103
   25  N  2  S   -0.173233   0.061612   0.034997  -0.005709  -4.515896
   26  N  2  X    0.544971  -0.159973  -0.090719   0.018257   0.001078
   27  N  2  Y   -0.070713  -0.189983   0.013469   0.013509  -0.000247
   28  N  2  Z   -0.021809   0.013491  -0.206828   0.026446  -0.000015
   29  N  2  S   -0.852325   0.040411   0.020471  -0.017783  -1.904123
   30  N  2  X    1.756255  -0.050355  -0.021711   0.041263   0.000259
   31  N  2  Y   -0.228266  -0.209002   0.007240   0.010449  -0.000059
   32  N  2  Z   -0.110451   0.007972  -0.214000   0.024486  -0.000004
   33  N  2 XX   -0.020339   0.047745   0.027174  -0.004043  -1.337450
   34  N  2 YY   -0.001745  -0.001893   0.002757   0.000137  -1.336356
   35  N  2 ZZ   -0.003213   0.004279  -0.001402   0.000178  -1.337379
   36  N  2 XY    0.004248   0.031437  -0.005996  -0.002486   0.000062
   37  N  2 XZ   -0.001425  -0.005986   0.038631  -0.005368  -0.000205
   38  N  2 YZ    0.000182  -0.002484  -0.005372  -0.002070  -0.001874
   39  H  3  S   -1.865463   0.661989   0.927948  -1.269285  -0.000000
   40  H  3  S   -2.624409   0.173059   0.229555  -0.388546  -0.016277
   41  H  4  S   -1.741518  -0.693302  -1.367545  -0.797555  -0.000000
   42  H  4  S   -2.594818  -0.176652  -0.364078  -0.264312  -0.016230
   43  H  5  S   -0.000144   0.000387   0.000452  -0.000133  -0.792834
   44  H  5  S   -0.063444   0.037965   0.043902  -0.013221  -2.013314
   45  H  6  S   -0.000080  -0.000050  -0.000261  -0.000009  -0.792982
   46  H  6  S   -0.057358  -0.004155  -0.024660  -0.001294  -2.013415

                     21         22         23         24         25

   21  N  2  S   -9.296326
   22  N  2  X    0.052260  -8.310595
   23  N  2  Y   -0.011841   0.002108  -8.250108
   24  N  2  Z   -0.000798  -0.006313  -0.058580  -8.305448
   25  N  2  S   -7.112946   0.057134  -0.012191  -0.001327  -7.441231
   26  N  2  X    0.040235  -3.948777   0.002868  -0.005077   0.193664
   27  N  2  Y   -0.008492   0.002868  -3.887427  -0.052306  -0.031600
   28  N  2  Z   -0.000991  -0.005077  -0.052306  -3.936684  -0.010369
   29  N  2  S   -3.686991   0.036747  -0.007506  -0.001056  -5.069958
   30  N  2  X    0.014812  -1.292070   0.001274  -0.001632   0.160214
   31  N  2  Y   -0.002988   0.001274  -1.268541  -0.018368  -0.023858
   32  N  2  Z   -0.000448  -0.001632  -0.018368  -1.285797  -0.009960
   33  N  2 XX   -5.358575   0.107600  -0.014685  -0.013002  -5.093179
   34  N  2 YY   -5.304157   0.022469  -0.015622   0.004535  -5.008991
   35  N  2 ZZ   -5.353695  -0.000748   0.001588   0.006141  -5.076927
   36  N  2 XY    0.003331  -0.025435   0.038918  -0.040160   0.006755
   37  N  2 XZ   -0.009754  -0.022520  -0.040160  -0.001295  -0.012181
   38  N  2 YZ   -0.090836  -0.040160   0.007854   0.002751  -0.124935
   39  H  3  S   -0.000071   0.000185  -0.000058  -0.000065  -0.022407
   40  H  3  S   -0.064366   0.067567  -0.021392  -0.023802  -0.273040
   41  H  4  S   -0.000070   0.000199   0.000005   0.000038  -0.022348
   42  H  4  S   -0.064210   0.073231   0.001873   0.014103  -0.272597
   43  H  5  S   -2.120979  -0.919746   1.189228   1.827429  -2.715133
   44  H  5  S   -3.708431  -0.551842   0.742811   1.148557  -4.625450
   45  H  6  S   -2.121290  -1.449884  -0.960788  -1.604947  -2.715444
   46  H  6  S   -3.708636  -0.885198  -0.609500  -1.010325  -4.625755

                     26         27         28         29         30

   26  N  2  X   -5.569186
   27  N  2  Y    0.025296  -5.297335
   28  N  2  Z    0.000374  -0.109082  -5.397017
   29  N  2  S    0.291844  -0.043459  -0.018143  -5.060394
   30  N  2  X   -3.370928   0.028253   0.008801   0.490094  -4.178747
   31  N  2  Y    0.028253  -3.117455  -0.056309  -0.067781   0.068290
   32  N  2  Z    0.008801  -0.056309  -3.166518  -0.033619   0.032440
   33  N  2 XX    0.152810  -0.020033  -0.018474  -3.012270   0.065391
   34  N  2 YY    0.030026  -0.018476   0.005554  -2.953543   0.013058
   35  N  2 ZZ   -0.000970   0.002883   0.006779  -2.997107   0.001376
   36  N  2 XY   -0.034698   0.052006  -0.053260   0.005415  -0.014007
   37  N  2 XZ   -0.031998  -0.053260  -0.001679  -0.007218  -0.012631
   38  N  2 YZ   -0.053260   0.009619   0.004994  -0.080295  -0.019973
   39  H  3  S    0.080507  -0.024082  -0.026298  -0.321890   0.768007
   40  H  3  S    0.561631  -0.163422  -0.176435  -0.975952   1.834530
   41  H  4  S    0.086596   0.001075   0.014691  -0.321549   0.829261
   42  H  4  S    0.602622   0.003486   0.095579  -0.975170   1.963800
   43  H  5  S   -1.236135   1.605859   2.468122  -1.971404  -0.610691
   44  H  5  S   -0.952550   1.365088   2.117804  -3.863683  -0.716547
   45  H  6  S   -1.952203  -1.298548  -2.168593  -1.971585  -0.964648
   46  H  6  S   -1.568740  -1.134787  -1.873116  -3.863978  -1.193152

                     31         32         33         34         35

   31  N  2  Y   -3.635913
   32  N  2  Z   -0.046921  -3.669756
   33  N  2 XX   -0.008087  -0.007292  -6.324451
   34  N  2 YY   -0.007533   0.001938  -2.796080  -6.163583
   35  N  2 ZZ    0.000888   0.002113  -2.826519  -2.798871  -6.299267
   36  N  2 XY    0.022616  -0.019973   0.000096   0.009281   0.003173
   37  N  2 XZ   -0.019973   0.002383  -0.022933  -0.000802  -0.008219
   38  N  2 YZ    0.003357   0.001537  -0.054815  -0.108139  -0.141889
   39  H  3  S   -0.233769  -0.256885  -0.000516  -0.000082  -0.000093
   40  H  3  S   -0.520656  -0.556525  -0.114602  -0.054191  -0.055895
   41  H  4  S    0.013673   0.146490  -0.000599  -0.000034  -0.000054
   42  H  4  S    0.000142   0.292493  -0.125876  -0.047687  -0.050623
   43  H  5  S    0.793830   1.220043  -1.444963  -1.662447  -2.415751
   44  H  5  S    1.053954   1.636224  -2.817658  -2.841806  -3.050690
   45  H  6  S   -0.641921  -1.072049  -1.932756  -1.472030  -2.119090
   46  H  6  S   -0.879711  -1.450788  -2.928609  -2.800415  -2.981653

                     36         37         38         39         40

   36  N  2 XY   -5.188239
   37  N  2 XZ   -0.094942  -5.279556
   38  N  2 YZ   -0.001389   0.005496  -5.196614
   39  H  3  S    0.000263   0.000293  -0.000093  -4.836116
   40  H  3  S    0.035764   0.039427  -0.012820  -3.485468  -4.727457
   41  H  4  S   -0.000024  -0.000187  -0.000005  -0.096157  -0.765878
   42  H  4  S   -0.002767  -0.024933  -0.001062  -0.765931  -2.013946
   43  H  5  S    0.735397   1.128729  -1.471661  -0.000000  -0.004298
   44  H  5  S    0.166323   0.247387  -0.399034  -0.003949  -0.075764
   45  H  6  S   -0.936885  -1.566226  -1.047164  -0.000008  -0.016917
   46  H  6  S   -0.214050  -0.364758  -0.304071  -0.015876  -0.171989

                     41         42         43         44         45

   41  H  4  S   -4.835549
   42  H  4  S   -3.485101  -4.726958
   43  H  5  S   -0.000008  -0.016813  -5.412447
   44  H  5  S   -0.015778  -0.171327  -3.853025  -5.158936
   45  H  6  S   -0.000000  -0.004298  -0.173087  -1.037078  -5.412936
   46  H  6  S   -0.003951  -0.075780  -1.037024  -2.476983  -3.853339

                     46

   46  H  6  S   -5.159359
 KINETIC ENERGY INTEGRALS

                      1          2          3          4          5

    1  C  1  S   16.207568
    2  C  1  S   -1.247569   0.932246
    3  C  1  X    0.000000   0.000000   2.178332
    4  C  1  Y    0.000000  -0.000000  -0.000000   2.178332
    5  C  1  Z    0.000000   0.000000  -0.000000   0.000000   2.178332
    6  C  1  S    0.089950   0.306718  -0.000000  -0.000000   0.000000
    7  C  1  X    0.000000   0.000000   0.376673   0.000000   0.000000
    8  C  1  Y    0.000000  -0.000000   0.000000   0.376673  -0.000000
    9  C  1  Z    0.000000  -0.000000   0.000000  -0.000000   0.376673
   10  C  1  S    0.009080   0.048660   0.000000   0.000000   0.000000
   11  C  1  X    0.000000   0.000000   0.033561   0.000000   0.000000
   12  C  1  Y   -0.000000  -0.000000   0.000000   0.033561   0.000000
   13  C  1  Z   -0.000000   0.000000   0.000000   0.000000   0.033561
   14  C  1 XX   -0.524817   0.520042  -0.000000   0.000000  -0.000000
   15  C  1 YY   -0.524817   0.520042  -0.000000  -0.000000  -0.000000
   16  C  1 ZZ   -0.524817   0.520042  -0.000000   0.000000  -0.000000
   17  C  1 XY    0.000000  -0.000000   0.000000  -0.000000  -0.000000
   18  C  1 XZ    0.000000  -0.000000  -0.000000  -0.000000  -0.000000
   19  C  1 YZ   -0.000000   0.000000  -0.000000  -0.000000   0.000000
   20  N  2  S   -0.000000  -0.000130  -0.000448   0.000058   0.000033
   21  N  2  S   -0.000017  -0.006228  -0.012565   0.001630   0.000927
   22  N  2  X    0.000063   0.010888   0.019303  -0.002790  -0.001587
   23  N  2  Y   -0.000008  -0.001412  -0.002790  -0.001842   0.000206
   24  N  2  Z   -0.000005  -0.000803  -0.001587   0.000206  -0.002087
   25  N  2  S   -0.003766  -0.019722  -0.011625   0.001508   0.000858
   26  N  2  X    0.009062   0.019516  -0.023388   0.002298   0.001307
   27  N  2  Y   -0.001176  -0.002532   0.002298  -0.005973  -0.000170
   28  N  2  Z   -0.000668  -0.001440   0.001307  -0.000170  -0.005772
   29  N  2  S    0.000730   0.006405   0.013149  -0.001706  -0.000970
   30  N  2  X   -0.008806  -0.049239  -0.034985   0.006055   0.003443
   31  N  2  Y    0.001142   0.006387   0.006055   0.010907  -0.000447
   32  N  2  Z    0.000650   0.003632   0.003443  -0.000447   0.011439
   33  N  2 XX   -0.000219  -0.022572  -0.034718   0.005493   0.003124
   34  N  2 YY   -0.000007  -0.004353  -0.009120   0.000193   0.000673
   35  N  2 ZZ   -0.000004  -0.004142  -0.008735   0.001133   0.000082
   36  N  2 XY    0.000049   0.004164   0.006737   0.005621  -0.000560
   37  N  2 XZ    0.000028   0.002368   0.003831  -0.000560   0.006288
   38  N  2 YZ   -0.000004  -0.000307  -0.000560  -0.000415  -0.000816
   39  H  3  S   -0.034324   0.027246  -0.082196   0.109454   0.153591
   40  H  3  S    0.022060   0.107434  -0.051860   0.069058   0.096905
   41  H  4  S   -0.034323   0.027217  -0.127923  -0.072823  -0.143642
   42  H  4  S    0.022056   0.107420  -0.080732  -0.045958  -0.090652
   43  H  5  S   -0.000000  -0.000258  -0.000617   0.000185   0.000219
   44  H  5  S   -0.001158  -0.008671  -0.007348   0.002207   0.002603
   45  H  6  S   -0.000000  -0.000259  -0.000672  -0.000026  -0.000120
   46  H  6  S   -0.001160  -0.008681  -0.007975  -0.000312  -0.001419

                      6          7          8          9         10

    6  C  1  S    0.253072
    7  C  1  X    0.000000   0.421786
    8  C  1  Y    0.000000   0.000000   0.421786
    9  C  1  Z    0.000000   0.000000   0.000000   0.421786
   10  C  1  S    0.075909   0.000000  -0.000000   0.000000   0.065700
   11  C  1  X   -0.000000   0.102352  -0.000000   0.000000   0.000000
   12  C  1  Y   -0.000000  -0.000000   0.102352   0.000000  -0.000000
   13  C  1  Z    0.000000   0.000000   0.000000   0.102352  -0.000000
   14  C  1 XX    0.226288  -0.000000   0.000000   0.000000   0.038835
   15  C  1 YY    0.226288  -0.000000   0.000000   0.000000   0.038835
   16  C  1 ZZ    0.226288  -0.000000   0.000000   0.000000   0.038835
   17  C  1 XY   -0.000000   0.000000  -0.000000  -0.000000  -0.000000
   18  C  1 XZ   -0.000000   0.000000  -0.000000  -0.000000  -0.000000
   19  C  1 YZ    0.000000  -0.000000   0.000000   0.000000   0.000000
   20  N  2  S   -0.003155  -0.005072   0.000658   0.000374   0.001225
   21  N  2  S   -0.015377  -0.009517   0.001235   0.000702   0.007633
   22  N  2  X    0.004384  -0.028150   0.003340   0.001900  -0.006175
   23  N  2  Y   -0.000569   0.003340  -0.002832  -0.000246   0.000801
   24  N  2  Z   -0.000323   0.001900  -0.000246  -0.002539   0.000456
   25  N  2  S   -0.011145   0.033918  -0.004400  -0.002502   0.017440
   26  N  2  X   -0.030256  -0.147766   0.021316   0.012122  -0.028209
   27  N  2  Y    0.003925   0.021316   0.013793  -0.001573   0.003659
   28  N  2  Z    0.002232   0.012122  -0.001573   0.015664   0.002081
   29  N  2  S    0.017217   0.048018  -0.006229  -0.003542   0.029147
   30  N  2  X   -0.078025  -0.085762   0.016665   0.009477  -0.054024
   31  N  2  Y    0.010122   0.016665   0.040539  -0.001229   0.007008
   32  N  2  Z    0.005756   0.009477  -0.001229   0.042002   0.003985
   33  N  2 XX   -0.007724   0.035993  -0.005848  -0.003325   0.009796
   34  N  2 YY   -0.015885  -0.015705   0.003216   0.001159   0.007066
   35  N  2 ZZ   -0.015980  -0.016409   0.002129   0.001881   0.007034
   36  N  2 XY   -0.001865  -0.012870  -0.006067   0.001025  -0.000624
   37  N  2 XZ   -0.001061  -0.007319   0.001025  -0.007286  -0.000355
   38  N  2 YZ    0.000138   0.001025   0.000448   0.000945   0.000046
   39  H  3  S    0.087819  -0.105281   0.140195   0.196728   0.027750
   40  H  3  S    0.128456  -0.082403   0.109729   0.153978   0.058894
   41  H  4  S    0.087805  -0.163893  -0.093299  -0.184032   0.027749
   42  H  4  S    0.128446  -0.128284  -0.073028  -0.144047   0.058892
   43  H  5  S   -0.006001  -0.013791   0.004142   0.004885   0.000851
   44  H  5  S   -0.013202  -0.005341   0.001604   0.001892   0.005795
   45  H  6  S   -0.006010  -0.014973  -0.000585  -0.002664   0.000856
   46  H  6  S   -0.013205  -0.005768  -0.000225  -0.001026   0.005807

                     11         12         13         14         15

   11  C  1  X    0.109500
   12  C  1  Y   -0.000000   0.109500
   13  C  1  Z   -0.000000   0.000000   0.109500
   14  C  1 XX   -0.000000   0.000000   0.000000   1.733333
   15  C  1 YY   -0.000000   0.000000   0.000000  -0.133333   1.733333
   16  C  1 ZZ   -0.000000   0.000000   0.000000  -0.133333  -0.133333
   17  C  1 XY    0.000000  -0.000000  -0.000000   0.000000  -0.000000
   18  C  1 XZ    0.000000  -0.000000  -0.000000   0.000000   0.000000
   19  C  1 YZ   -0.000000   0.000000   0.000000   0.000000   0.000000
   20  N  2  S    0.005920  -0.000768  -0.000437  -0.000116  -0.000003
   21  N  2  S    0.033581  -0.004356  -0.002477  -0.013729  -0.001590
   22  N  2  X   -0.010875   0.002271   0.001292   0.024446   0.003524
   23  N  2  Y    0.002271   0.006338  -0.000168  -0.003714   0.000086
   24  N  2  Z    0.001292  -0.000168   0.006537  -0.002112  -0.000260
   25  N  2  S    0.062067  -0.008051  -0.004579  -0.014861  -0.016290
   26  N  2  X   -0.037891   0.008846   0.005030  -0.018051   0.027523
   27  N  2  Y    0.008846   0.029152  -0.000653   0.002526  -0.003754
   28  N  2  Z    0.005030  -0.000653   0.029929   0.001436  -0.002030
   29  N  2  S    0.065253  -0.008465  -0.004814   0.009465   0.003333
   30  N  2  X   -0.031888   0.011664   0.006633  -0.044410  -0.037187
   31  N  2  Y    0.011664   0.056514  -0.000860   0.007200   0.003385
   32  N  2  Z    0.006633  -0.000860   0.057537   0.004094   0.002743
   33  N  2 XX    0.033649  -0.005139  -0.002922  -0.050341  -0.008937
   34  N  2 YY    0.032983  -0.003505  -0.002433  -0.008937  -0.001396
   35  N  2 ZZ    0.032906  -0.004269  -0.001987  -0.008251  -0.000867
   36  N  2 XY   -0.000845  -0.004969   0.000112   0.011447  -0.000262
   37  N  2 XZ   -0.000481   0.000112  -0.005102   0.006510   0.001037
   38  N  2 YZ    0.000112   0.000367   0.000662  -0.000998   0.000019
   39  H  3  S   -0.016303   0.021710   0.030464  -0.018601   0.031827
   40  H  3  S   -0.028639   0.038136   0.053515   0.073558   0.081487
   41  H  4  S   -0.025381  -0.014449  -0.028500   0.074212  -0.032605
   42  H  4  S   -0.044586  -0.025382  -0.050065   0.088146   0.071347
   43  H  5  S    0.015051  -0.004521  -0.005332  -0.000383  -0.000062
   44  H  5  S    0.037986  -0.011410  -0.013457  -0.008835  -0.006347
   45  H  6  S    0.016343   0.000639   0.002907  -0.000448  -0.000031
   46  H  6  S    0.041236   0.001611   0.007336  -0.009325  -0.006114

                     16         17         18         19         20

   16  C  1 ZZ    1.733333
   17  C  1 XY    0.000000   2.800000
   18  C  1 XZ    0.000000   0.000000   2.800000
   19  C  1 YZ    0.000000   0.000000   0.000000   2.800000
   20  N  2  S   -0.000002   0.000026   0.000015  -0.000002  22.380850
   21  N  2  S   -0.001449   0.002774   0.001578  -0.000205  -1.780337
   22  N  2  X    0.003233  -0.005268  -0.002996   0.000423  -0.000000
   23  N  2  Y   -0.000419  -0.002881   0.000423   0.000213  -0.000000
   24  N  2  Z    0.000070   0.000423  -0.003385   0.000439  -0.000000
   25  N  2  S   -0.016307  -0.000326  -0.000186   0.000024   0.105796
   26  N  2  X    0.028067   0.010580   0.006016  -0.000792  -0.000000
   27  N  2  Y   -0.003641  -0.000164  -0.000792   0.000012  -0.000000
   28  N  2  Z   -0.002175  -0.000792   0.000778  -0.000101  -0.000000
   29  N  2  S    0.003262  -0.001401  -0.000797   0.000103   0.013731
   30  N  2  X   -0.036975   0.002940   0.001672  -0.000309   0.000000
   31  N  2  Y    0.004796   0.009063  -0.000309  -0.000669   0.000000
   32  N  2  Z    0.001909  -0.000309   0.009430  -0.001223  -0.000000
   33  N  2 XX   -0.008251   0.011447   0.006510  -0.000998  -0.502744
   34  N  2 YY   -0.000867  -0.000262   0.001037   0.000019  -0.502744
   35  N  2 ZZ   -0.001429   0.001688  -0.000226   0.000029  -0.502744
   36  N  2 XY    0.001688   0.010353  -0.001388  -0.000829   0.000000
   37  N  2 XZ   -0.000226  -0.001388   0.012005  -0.001693   0.000000
   38  N  2 YZ    0.000029  -0.000829  -0.001693  -0.000828  -0.000000
   39  H  3  S    0.143901  -0.150422  -0.211080   0.281079  -0.000000
   40  H  3  S    0.099109  -0.023651  -0.033188   0.044194  -0.000760
   41  H  4  S    0.115433   0.155817   0.307345   0.174963  -0.000000
   42  H  4  S    0.094629   0.024506   0.048337   0.027517  -0.000759
   43  H  5  S   -0.000075   0.000184   0.000216  -0.000065  -0.029095
   44  H  5  S   -0.006443   0.001423   0.001678  -0.000504   0.021293
   45  H  6  S   -0.000044  -0.000028  -0.000129  -0.000005  -0.029095
   46  H  6  S   -0.006211  -0.000218  -0.000991  -0.000039   0.021296

                     21         22         23         24         25

   21  N  2  S    1.324774
   22  N  2  X    0.000000   3.132326
   23  N  2  Y    0.000000  -0.000000   3.132326
   24  N  2  Z    0.000000   0.000000   0.000000   3.132326
   25  N  2  S    0.379313  -0.000000   0.000000  -0.000000   0.318047
   26  N  2  X   -0.000000   0.441948   0.000000  -0.000000  -0.000000
   27  N  2  Y   -0.000000   0.000000   0.441948   0.000000   0.000000
   28  N  2  Z    0.000000  -0.000000   0.000000   0.441948   0.000000
   29  N  2  S    0.072139   0.000000  -0.000000  -0.000000   0.114154
   30  N  2  X   -0.000000   0.050146   0.000000   0.000000   0.000000
   31  N  2  Y    0.000000   0.000000   0.050146  -0.000000   0.000000
   32  N  2  Z    0.000000   0.000000  -0.000000   0.050146   0.000000
   33  N  2 XX    0.420094   0.000000  -0.000000  -0.000000   0.277470
   34  N  2 YY    0.420094   0.000000   0.000000  -0.000000   0.277470
   35  N  2 ZZ    0.420094   0.000000  -0.000000  -0.000000   0.277470
   36  N  2 XY   -0.000000  -0.000000   0.000000   0.000000   0.000000
   37  N  2 XZ    0.000000  -0.000000   0.000000   0.000000  -0.000000
   38  N  2 YZ    0.000000   0.000000  -0.000000  -0.000000   0.000000
   39  H  3  S   -0.000038   0.000093  -0.000030  -0.000034  -0.003576
   40  H  3  S   -0.005812   0.004816  -0.001551  -0.001738  -0.012671
   41  H  4  S   -0.000038   0.000101   0.000003   0.000020  -0.003568
   42  H  4  S   -0.005803   0.005238   0.000158   0.001047  -0.012663
   43  H  5  S    0.012324   0.078660  -0.100338  -0.153941   0.109723
   44  H  5  S    0.106693   0.040873  -0.052138  -0.079992   0.144106
   45  H  6  S    0.012345   0.123314   0.080712   0.135094   0.109735
   46  H  6  S    0.106702   0.064064   0.041931   0.070184   0.144114

                     26         27         28         29         30

   26  N  2  X    0.530079
   27  N  2  Y    0.000000   0.530079
   28  N  2  Z    0.000000   0.000000   0.530079
   29  N  2  S    0.000000   0.000000   0.000000   0.095850
   30  N  2  X    0.160516   0.000000   0.000000  -0.000000   0.159750
   31  N  2  Y    0.000000   0.160516   0.000000   0.000000   0.000000
   32  N  2  Z    0.000000   0.000000   0.160516  -0.000000   0.000000
   33  N  2 XX    0.000000   0.000000  -0.000000   0.068057  -0.000000
   34  N  2 YY    0.000000   0.000000  -0.000000   0.068057   0.000000
   35  N  2 ZZ    0.000000   0.000000   0.000000   0.068057   0.000000
   36  N  2 XY    0.000000   0.000000   0.000000   0.000000   0.000000
   37  N  2 XZ   -0.000000   0.000000   0.000000   0.000000   0.000000
   38  N  2 YZ    0.000000  -0.000000   0.000000   0.000000   0.000000
   39  H  3  S    0.010025  -0.003228  -0.003618  -0.003186  -0.007057
   40  H  3  S    0.010714  -0.003450  -0.003867  -0.001349  -0.028246
   41  H  4  S    0.010896   0.000329   0.002178  -0.003189  -0.007660
   42  H  4  S    0.011678   0.000352   0.002335  -0.001362  -0.030709
   43  H  5  S    0.131603  -0.167872  -0.257554   0.046516   0.029977
   44  H  5  S    0.083732  -0.106808  -0.163867   0.086544   0.042864
   45  H  6  S    0.206274   0.135010   0.225978   0.046518   0.046983
   46  H  6  S    0.131236   0.085897   0.143772   0.086547   0.067181

                     31         32         33         34         35

   31  N  2  Y    0.159750
   32  N  2  Z    0.000000   0.159750
   33  N  2 XX    0.000000   0.000000   1.733333
   34  N  2 YY    0.000000   0.000000  -0.133333   1.733333
   35  N  2 ZZ    0.000000   0.000000  -0.133333  -0.133333   1.733333
   36  N  2 XY    0.000000   0.000000  -0.000000   0.000000   0.000000
   37  N  2 XZ    0.000000   0.000000   0.000000   0.000000   0.000000
   38  N  2 YZ    0.000000   0.000000   0.000000   0.000000  -0.000000
   39  H  3  S    0.002272   0.002547  -0.000253  -0.000044  -0.000050
   40  H  3  S    0.009096   0.010195  -0.008142  -0.005648  -0.005722
   41  H  4  S   -0.000231  -0.001531  -0.000295  -0.000019  -0.000030
   42  H  4  S   -0.000926  -0.006139  -0.008650  -0.005353  -0.005482
   43  H  5  S   -0.038238  -0.058667  -0.005239   0.045394   0.223252
   44  H  5  S   -0.054677  -0.083887   0.085827   0.091857   0.113040
   45  H  6  S    0.030752   0.051472   0.112382  -0.001000   0.152089
   46  H  6  S    0.043971   0.073598   0.099839   0.086337   0.104568

                     36         37         38         39         40

   36  N  2 XY    2.800000
   37  N  2 XZ    0.000000   2.800000
   38  N  2 YZ    0.000000   0.000000   2.800000
   39  H  3  S    0.000130   0.000146  -0.000047   1.395678
   40  H  3  S    0.001552   0.001740  -0.000560   0.259735   0.241917
   41  H  4  S   -0.000014  -0.000095  -0.000003  -0.018641  -0.006900
   42  H  4  S   -0.000172  -0.001143  -0.000034  -0.006900   0.024578
   43  H  5  S   -0.178380  -0.273676   0.349100  -0.000000  -0.000666
   44  H  5  S   -0.021245  -0.032595   0.041578  -0.000666  -0.005325
   45  H  6  S    0.224872   0.376388   0.246354  -0.000005  -0.002401
   46  H  6  S    0.026779   0.044822   0.029337  -0.002401  -0.009659

                     41         42         43         44         45

   41  H  4  S    1.395678
   42  H  4  S    0.259735   0.241917
   43  H  5  S   -0.000005  -0.002389   1.395678
   44  H  5  S   -0.002389  -0.009639   0.259735   0.241917
   45  H  6  S   -0.000000  -0.000666  -0.025954  -0.000783   1.395678
   46  H  6  S   -0.000666  -0.005326  -0.000783   0.035853   0.259735

                     46

   46  H  6  S    0.241917
 ...... END OF ONE-ELECTRON INTEGRALS ......
 CPU     0: STEP CPU TIME=     0.01 TOTAL CPU TIME=        0.0 (    0.0 MIN)
 TOTAL WALL CLOCK TIME=        0.0 SECONDS, CPU UTILIZATION IS  50.00%

          -------------
          GUESS OPTIONS
          -------------
          GUESS =HUCKEL            NORB  =       0          NORDER=       0
          MIX   =       F          PRTMO =       F          PUNMO =       F
          TOLZ  = 1.0E-08          TOLE  = 1.0E-05
          SYMDEN=       F          PURIFY=       F

 INITIAL GUESS ORBITALS GENERATED BY HUCKEL   ROUTINE.
 HUCKEL GUESS REQUIRES     20552 WORDS.

 SYMMETRIES FOR INITIAL GUESS ORBITALS FOLLOW.   BOTH SET(S).
     8 ORBITALS ARE OCCUPIED (    2 CORE ORBITALS).
     3=A        4=A        5=A        6=A        7=A        8=A        9=A   
    10=A       11=A       12=A       13=A       14=A       15=A       16=A   
    17=A       18=A   
 ...... END OF INITIAL ORBITAL SELECTION ......
 CPU     0: STEP CPU TIME=     0.00 TOTAL CPU TIME=        0.0 (    0.0 MIN)
 TOTAL WALL CLOCK TIME=        0.1 SECONDS, CPU UTILIZATION IS  40.00%

                    ----------------------
                    AO INTEGRAL TECHNOLOGY
                    ----------------------
     S,P,L SHELL ROTATED AXIS INTEGRALS, REPROGRAMMED BY
        KAZUYA ISHIMURA (IMS) AND JOSE SIERRA (SYNSTAR).
     S,P,D,L SHELL ROTATED AXIS INTEGRALS PROGRAMMED BY
        KAZUYA ISHIMURA (INSTITUTE FOR MOLECULAR SCIENCE).
     S,P,D,F,G SHELL TO TOTAL QUARTET ANGULAR MOMENTUM SUM 5,
        ERIC PROGRAM BY GRAHAM FLETCHER (ELORET AND NASA ADVANCED
        SUPERCOMPUTING DIVISION, AMES RESEARCH CENTER).
     S,P,D,F,G,L SHELL GENERAL RYS QUADRATURE PROGRAMMED BY
        MICHEL DUPUIS (PACIFIC NORTHWEST NATIONAL LABORATORY).

          --------------------
          2 ELECTRON INTEGRALS
          --------------------

 THE -PK- OPTION IS OFF, THE INTEGRALS ARE NOT IN SUPERMATRIX FORM.
 STORING   15000 INTEGRALS/RECORD ON DISK, USING 12 BYTES/INTEGRAL.
 TWO ELECTRON INTEGRAL EVALUATION REQUIRES   90567 WORDS OF MEMORY.
 SCHWARZ INEQUALITY OVERHEAD:      1080 INTEGRALS, T=        0.00
 II,JST,KST,LST =  1  1  1  1 NREC =         1 INTLOC =    1
 II,JST,KST,LST =  2  1  1  1 NREC =         1 INTLOC =    1
 II,JST,KST,LST =  3  1  1  1 NREC =         1 INTLOC =    1
 II,JST,KST,LST =  4  1  1  1 NREC =         1 INTLOC =    1
 II,JST,KST,LST =  5  1  1  1 NREC =         1 INTLOC =    1
 II,JST,KST,LST =  6  1  1  1 NREC =         1 INTLOC = 1105
 II,JST,KST,LST =  7  1  1  1 NREC =         1 INTLOC = 1105
 II,JST,KST,LST =  8  1  1  1 NREC =         1 INTLOC =12084
 II,JST,KST,LST =  9  1  1  1 NREC =         3 INTLOC = 4686
 II,JST,KST,LST = 10  1  1  1 NREC =         5 INTLOC = 1535
 II,JST,KST,LST = 11  1  1  1 NREC =         9 INTLOC = 2284
 II,JST,KST,LST = 12  1  1  1 NREC =         9 INTLOC = 2284
 II,JST,KST,LST = 13  1  1  1 NREC =         9 INTLOC =11628
 II,JST,KST,LST = 14  1  1  1 NREC =        10 INTLOC =12869
 II,JST,KST,LST = 15  1  1  1 NREC =        12 INTLOC = 2901
 II,JST,KST,LST = 16  1  1  1 NREC =        13 INTLOC = 1302
 II,JST,KST,LST = 17  1  1  1 NREC =        14 INTLOC = 9172
 II,JST,KST,LST = 18  1  1  1 NREC =        15 INTLOC = 6276
 SCHWARZ INEQUALITY TEST SKIPPED         879 INTEGRAL BLOCKS.
 TOTAL NUMBER OF NONZERO TWO-ELECTRON INTEGRALS =              539563
         37 INTEGRAL RECORDS WERE STORED ON DISK FILE  8.
  ...... END OF TWO-ELECTRON INTEGRALS .....
 CPU     0: STEP CPU TIME=     0.06 TOTAL CPU TIME=        0.1 (    0.0 MIN)
 TOTAL WALL CLOCK TIME=        0.1 SECONDS, CPU UTILIZATION IS  66.67%

          --------------------------
             R-B3LYP SCF CALCULATION
          --------------------------

     NUCLEAR ENERGY =        27.6748421628
     MAXIT =   30     NPUNCH=    2
     EXTRAP=T  DAMP=F  SHIFT=F  RSTRCT=F  DIIS=T  DEM=F  SOSCF=F
         DENSITY MATRIX CONVERGENCE THRESHOLD=  1.00E-06
     COARSE -> FINE DFT GRID SWITCH THRESHOLD=  3.00E-04 (SWITCH IN $DFT)
                   HF -> DFT SWITCH THRESHOLD=  5.00E-03 (SWOFF IN $DFT)
     MEMORY REQUIRED FOR RHF ITERS=    271743 WORDS.

 DFT CODE IS SWITCHING FROM THE FINE GRID NRAD= 96,  NLEB=  302
                      TO THE COARSE GRID NRAD0= 24, NLEB0=  110

     EXCHANGE FUNCTIONAL   =B88&HFX   
     CORRELATION FUNCTIONAL=LYP88&VWN5
     DFT THRESHOLD         =.230E-07
     GRID CHANGE THRESHOLD =.300E-03
 FOR AN EULER-MACLAURIN QUADRATURE USING  96 RADIAL POINTS:
 SMALLEST GAUSSIAN PRIMITIVE EXPONENT=        0.0438000000 OF TYPE -P-
 ON ATOM NUMBER   1 HAS RADIAL NORMALIZATION=  1.000000
  LARGEST GAUSSIAN PRIMITIVE EXPONENT=     4173.5114600000 OF TYPE -S-
 ON ATOM NUMBER   2 HAS RADIAL NORMALIZATION=  1.000000
 DFT IS SWITCHED OFF, PERFORMING PURE SCF UNTIL SWOFF THRESHOLD IS REACHED.

 ITER EX DEM     TOTAL ENERGY        E CHANGE  DENSITY CHANGE    DIIS ERROR
          * * *   INITIATING DIIS PROCEDURE   * * *
   1  0  0      -93.5926350969   -93.5926350969   0.339507366   0.446437525
   2  1  0      -93.6399908722    -0.0473557753   0.372830730   0.486113072
   3  2  0      -93.8747047154    -0.2347138432   0.188797311   0.226178896
   4  3  0      -94.0242926880    -0.1495879726   0.035753392   0.032126418
   5  4  0      -94.0333573769    -0.0090646888   0.026621597   0.031539609
   6  5  0      -94.0386064294    -0.0052490525   0.036343215   0.023519321
   7  6  0      -94.0418281220    -0.0032216926   0.005526575   0.004351205
   8  7  0      -94.0418947028    -0.0000665809   0.002943646   0.001719396
 CONVERGED TO SWOFF, SO DFT CALCULATION IS NOW SWITCHED ON.
          * * *   INITIATING DIIS PROCEDURE   * * *
   9  8  0      -94.5793195206    -0.5374248177   0.116144068   0.086533230
  10  9  0      -94.6046950527    -0.0253755322   0.229922866   0.038777152
  11 10  0      -94.4552150866     0.1494799661   0.144387229   0.348980914
  12 11  0      -94.6108479077    -0.1556328211   0.022672569   0.025878919
  13 12  0      -94.6108577601    -0.0000098524   0.021724559   0.037977074
  14 13  0      -94.6131219773    -0.0022642171   0.028236161   0.012497007
  15 14  0      -94.6135276420    -0.0004056647   0.002964661   0.004930981
  16 15  0      -94.6135699249    -0.0000422830   0.000394259   0.000153005
  17 16  0      -94.6135701726    -0.0000002477   0.000299301   0.000037213
 DFT CODE IS SWITCHING BACK TO THE FINE GRID
          * * *   INITIATING DIIS PROCEDURE   * * *
  18 17  0      -94.6129356677     0.0006345050   0.001240767   0.001334904
  19 18  0      -94.6129394985    -0.0000038308   0.002256785   0.000550168
  20 19  0      -94.6129204881     0.0000190104   0.001498566   0.003430067
  21 20  0      -94.6129401625    -0.0000196744   0.000266269   0.000382112
  22 21  0      -94.6129403602    -0.0000001977   0.000306222   0.000244618
  23 22  0      -94.6129404793    -0.0000001191   0.000029689   0.000009948
  24 23  0      -94.6129404801    -0.0000000007   0.000004198   0.000002401
  25 24  0      -94.6129404801    -0.0000000000   0.000002566   0.000001800
  26 25  0      -94.6129404801    -0.0000000000   0.000003048   0.000001328
  27 26  0      -94.6129404801    -0.0000000000   0.000000144   0.000000252
  28 27  0      -94.6129404801    -0.0000000000   0.000000034   0.000000024

          -----------------
          DENSITY CONVERGED
          -----------------
     TIME TO FORM FOCK OPERATORS=       6.8 SECONDS (       0.2 SEC/ITER)
     TIME TO SOLVE SCF EQUATIONS=       0.1 SECONDS (       0.0 SEC/ITER)

 FINAL R-B3LYP ENERGY IS      -94.6129404801 AFTER  28 ITERATIONS
 DFT EXCHANGE + CORRELATION ENERGY =       -10.5749723732
 TOTAL ELECTRON NUMBER             =        16.0000330983

          ------------
          EIGENVECTORS
          ------------

                      1          2          3          4          5
                  -14.6581   -10.6290    -1.0696    -0.9570    -0.7393
                     A          A          A          A          A   
    1  C  1  S    0.000002   0.993039  -0.021631  -0.204055   0.000009
    2  C  1  S    0.000069   0.046825   0.045600   0.449526  -0.000016
    3  C  1  X   -0.000017   0.000298   0.011495  -0.114682   0.025255
    4  C  1  Y    0.000002  -0.000061  -0.001257   0.019327   0.100491
    5  C  1  Z    0.000002  -0.000008  -0.000986   0.005819   0.163608
    6  C  1  S   -0.000042  -0.009439   0.045143   0.409489  -0.000040
    7  C  1  X   -0.000059  -0.000085   0.005887  -0.043008   0.008402
    8  C  1  Y    0.000009   0.000001  -0.000702   0.007388   0.033406
    9  C  1  Z    0.000004   0.000012  -0.000456   0.002098   0.054360
   10  C  1  S    0.000467   0.001001   0.024349  -0.003921  -0.000012
   11  C  1  X    0.000266   0.000404   0.013967  -0.002860  -0.000147
   12  C  1  Y   -0.000037  -0.000076  -0.001851   0.000523  -0.000569
   13  C  1  Z   -0.000018  -0.000016  -0.000998   0.000120  -0.000941
   14  C  1 XX   -0.000071  -0.009160   0.001120  -0.005927  -0.002369
   15  C  1 YY   -0.000002  -0.009106  -0.001526  -0.011270   0.001655
   16  C  1 ZZ   -0.000003  -0.008944  -0.000528   0.003307   0.000715
   17  C  1 XY    0.000011   0.000017  -0.000369  -0.000255  -0.005200
   18  C  1 XZ    0.000006   0.000047   0.000052   0.003499  -0.008830
   19  C  1 YZ   -0.000003   0.000187   0.001230   0.017142   0.001811
   20  N  2  S    0.992797  -0.000048  -0.207890   0.019813   0.000007
   21  N  2  S    0.033973  -0.000174   0.454871  -0.045774  -0.000018
   22  N  2  X    0.000054   0.000004   0.087199  -0.038035   0.061892
   23  N  2  Y    0.000019  -0.000000  -0.007699   0.004428   0.251141
   24  N  2  Z   -0.000020  -0.000000  -0.008623   0.003120   0.401052
   25  N  2  S    0.004302   0.000695   0.481288  -0.045748  -0.000032
   26  N  2  X   -0.000077  -0.000433   0.036296  -0.021580   0.030492
   27  N  2  Y   -0.000003   0.000057  -0.002782   0.002501   0.123765
   28  N  2  Z    0.000014   0.000032  -0.003853   0.001774   0.197643
   29  N  2  S   -0.000956   0.000063  -0.022572   0.000648   0.000020
   30  N  2  X    0.000375  -0.000276   0.021257   0.000615   0.001632
   31  N  2  Y   -0.000038   0.000048  -0.002548  -0.000260   0.006662
   32  N  2  Z   -0.000034   0.000013  -0.001705   0.000066   0.010663
   33  N  2 XX   -0.008167   0.000113   0.001628   0.000900   0.006226
   34  N  2 YY   -0.008144  -0.000153  -0.008948   0.000295  -0.002241
   35  N  2 ZZ   -0.008122  -0.000154   0.006317  -0.001811  -0.003986
   36  N  2 XY    0.000006  -0.000041   0.000442  -0.000396   0.014265
   37  N  2 XZ    0.000007  -0.000022   0.002400  -0.000488   0.022921
   38  N  2 YZ    0.000026   0.000007   0.018445  -0.002482  -0.003506
   39  H  3  S    0.000004  -0.000266   0.011301   0.172034   0.090059
   40  H  3  S   -0.000016   0.001514  -0.000435   0.031885   0.054811
   41  H  4  S    0.000004  -0.000267   0.011295   0.172018  -0.090095
   42  H  4  S   -0.000016   0.001513  -0.000416   0.031894  -0.054815
   43  H  5  S    0.000267   0.000005   0.149601  -0.022704  -0.226716
   44  H  5  S   -0.000372  -0.000149  -0.003618  -0.000652  -0.087455
   45  H  6  S    0.000267   0.000005   0.149618  -0.022692   0.226691
   46  H  6  S   -0.000372  -0.000151  -0.003602  -0.000647   0.087455

                      6          7          8          9         10
                   -0.7239    -0.6135    -0.5040    -0.4272    -0.4218
                     A          A          A          A          A   
    1  C  1  S    0.000002   0.035308   0.000752   0.050822  -0.070523
    2  C  1  S   -0.000003  -0.077590  -0.001919  -0.122700   0.170268
    3  C  1  X    0.062270  -0.362926   0.031324  -0.211579   0.405537
    4  C  1  Y    0.248073   0.055915   0.242055   0.439518   0.222739
    5  C  1  Z    0.404596   0.021644  -0.153037  -0.237074  -0.199094
    6  C  1  S   -0.000018  -0.137345  -0.002809  -0.212770   0.296291
    7  C  1  X    0.021978  -0.194553   0.020370  -0.136136   0.270451
    8  C  1  Y    0.087476   0.029532   0.166032   0.299880   0.156278
    9  C  1  Z    0.142659   0.011851  -0.105107  -0.162848  -0.137395
   10  C  1  S    0.000000  -0.016725  -0.000648  -0.053175   0.083397
   11  C  1  X    0.000027  -0.019220   0.002246  -0.044872   0.083912
   12  C  1  Y    0.000110   0.002737   0.018915   0.061432   0.027156
   13  C  1  Z    0.000174   0.001286  -0.011940  -0.030777  -0.029557
   14  C  1 XX   -0.007099   0.002010  -0.000069   0.012228  -0.021281
   15  C  1 YY    0.004775   0.002186   0.000138   0.002191   0.001790
   16  C  1 ZZ    0.002322   0.007397   0.000139   0.001676  -0.003226
   17  C  1 XY   -0.015639   0.000087   0.000296  -0.010706  -0.002699
   18  C  1 XZ   -0.026413   0.001507  -0.000226   0.005115   0.004580
   19  C  1 YZ    0.005318   0.006123  -0.000089   0.002817  -0.004329
   20  N  2  S    0.000000   0.035356   0.001662  -0.040275   0.057625
   21  N  2  S    0.000003  -0.073042  -0.004279   0.097263  -0.139368
   22  N  2  X   -0.025705   0.415205   0.028020  -0.241342   0.319593
   23  N  2  Y   -0.104159  -0.046041   0.474282  -0.196046  -0.195521
   24  N  2  Z   -0.166014  -0.035233  -0.301553   0.159872   0.072958
   25  N  2  S   -0.000006  -0.149157  -0.005921   0.174555  -0.251516
   26  N  2  X   -0.012819   0.268286   0.019614  -0.170945   0.229134
   27  N  2  Y   -0.051976  -0.030162   0.329586  -0.133436  -0.136465
   28  N  2  Z   -0.082823  -0.022540  -0.209433   0.109977   0.050058
   29  N  2  S   -0.000005   0.001999   0.001915   0.072110  -0.116327
   30  N  2  X   -0.000572   0.022020   0.002980  -0.051929   0.073236
   31  N  2  Y   -0.002332  -0.002396   0.059016  -0.038301  -0.040254
   32  N  2  Z   -0.003695  -0.001916  -0.037384   0.031877   0.013812
   33  N  2 XX   -0.003049   0.005607   0.000584  -0.014174   0.019165
   34  N  2 YY    0.001172   0.002183  -0.001062   0.002316  -0.000240
   35  N  2 ZZ    0.001881   0.006613   0.000717  -0.000672  -0.000654
   36  N  2 XY   -0.006969   0.000579   0.007575  -0.006191  -0.008082
   37  N  2 XZ   -0.011245   0.000334  -0.004930   0.006289   0.001702
   38  N  2 YZ    0.001759   0.005172  -0.000580  -0.000975   0.001841
   39  H  3  S    0.231440   0.085115   0.000611   0.052380  -0.069951
   40  H  3  S    0.137149   0.059073   0.000263   0.060392  -0.082754
   41  H  4  S   -0.231443   0.085051   0.000263   0.052604  -0.069868
   42  H  4  S   -0.137140   0.059020  -0.000270   0.060743  -0.082597
   43  H  5  S    0.096201   0.100158   0.001747  -0.049790   0.069715
   44  H  5  S    0.037930   0.049571   0.000379  -0.053138   0.078418
   45  H  6  S   -0.096226   0.100202   0.001563  -0.050062   0.069474
   46  H  6  S   -0.037934   0.049643   0.000104  -0.053319   0.078245

                     11         12         13         14         15
                   -0.1725    -0.1381    -0.1201    -0.0889    -0.0871
                     A          A          A          A          A   
    1  C  1  S    0.090833   0.035143   0.000006  -0.000081  -0.001316
    2  C  1  S   -0.208773  -0.076598  -0.000003   0.000263   0.003823
    3  C  1  X    0.147534   0.248785  -0.050112   0.023860  -0.024464
    4  C  1  Y   -0.026586  -0.037089  -0.200294   0.086725  -0.237635
    5  C  1  Z   -0.006420  -0.015228  -0.326061   0.171484   0.136508
    6  C  1  S   -0.923257  -0.485572  -0.000179   0.000578   0.010748
    7  C  1  X    0.211106   0.292077  -0.073718   0.058585  -0.025955
    8  C  1  Y   -0.038168  -0.045322  -0.294256   0.225688  -0.227002
    9  C  1  Z   -0.009069  -0.016819  -0.479303   0.396147   0.111454
   10  C  1  S    1.134277  -0.031242   0.000453  -0.001718  -0.008365
   11  C  1  X    0.105510  -0.675138   0.113432  -0.010174   0.085396
   12  C  1  Y   -0.005923   0.095475   0.453180  -0.009620   0.875365
   13  C  1  Z   -0.012360   0.044424   0.736990  -0.124360  -0.544311
   14  C  1 XX    0.002520  -0.004161   0.000690   0.005152  -0.000259
   15  C  1 YY    0.011686   0.003067  -0.000453  -0.003378  -0.000357
   16  C  1 ZZ    0.011767   0.002805  -0.000237  -0.001819  -0.000181
   17  C  1 XY    0.001611   0.001229   0.001527   0.011491   0.000786
   18  C  1 XZ    0.000654   0.000434   0.002580   0.019070  -0.002172
[...]
   35  N  2 ZZ    0.000317   0.001125   0.000019   0.000001   0.000154
   36  N  2 XY    0.000042   0.000083   0.000018  -0.000002   0.000003
   37  N  2 XZ    0.000021   0.000037   0.000000   0.000092   0.000002
   38  N  2 YZ    0.000002   0.000003  -0.000001   0.000002  -0.000000
   39  H  3  S   -0.037037   0.047879   0.027495   0.032648  -0.011525
   40  H  3  S   -0.153328   0.053162   0.027939   0.032938  -0.031994
   41  H  4  S   -0.037078   0.082372  -0.000747   0.026439  -0.011525
   42  H  4  S   -0.153453   0.090443  -0.001532   0.025191  -0.032009
   43  H  5  S    0.001367   0.004258   0.000217  -0.000088   0.003431
   44  H  5  S    0.011472   0.020723   0.001362  -0.000048   0.009157
   45  H  6  S    0.001369   0.004516  -0.000047  -0.000081   0.003431
   46  H  6  S    0.011473   0.022357  -0.000208  -0.000136   0.009154

                     11         12         13         14         15

   11  C  1  X    0.036437
   12  C  1  Y    0.000000  -0.005473
   13  C  1  Z    0.000000   0.000000  -0.002723
   14  C  1 XX    0.000000   0.000000   0.000000   0.004211
   15  C  1 YY   -0.000000   0.000000  -0.000000   0.000034   0.000038
   16  C  1 ZZ    0.000000   0.000000   0.000000   0.000521  -0.000074
   17  C  1 XY    0.000000   0.000000   0.000000   0.000000  -0.000000
   18  C  1 XZ   -0.000000   0.000000   0.000000   0.000000  -0.000000
   19  C  1 YZ    0.000000   0.000000   0.000000   0.000000   0.000000
   20  N  2  S    0.001226   0.000032   0.000003  -0.000000  -0.000000
   21  N  2  S   -0.016746  -0.000446  -0.000034   0.000064   0.000002
   22  N  2  X   -0.005089  -0.000370  -0.000020   0.000239   0.000016
   23  N  2  Y   -0.000258  -0.004865  -0.000050  -0.000005  -0.000000
   24  N  2  Z   -0.000058  -0.000052  -0.002085   0.000005  -0.000000
   25  N  2  S   -0.056833  -0.001468  -0.000131   0.001700   0.000260
   26  N  2  X   -0.011675  -0.001088  -0.000060   0.003155   0.001067
   27  N  2  Y   -0.000773  -0.016353  -0.000148  -0.000059   0.000016
   28  N  2  Z   -0.000168  -0.000154  -0.006921   0.000071  -0.000001
   29  N  2  S   -0.026491  -0.000720  -0.000049   0.002148   0.000021
   30  N  2  X   -0.000379  -0.000410  -0.000012   0.001881   0.000180
   31  N  2  Y   -0.000229  -0.006926  -0.000045  -0.000005   0.000011
   32  N  2  Z   -0.000074  -0.000048  -0.002847   0.000028  -0.000004
   33  N  2 XX    0.002205   0.000068   0.000005  -0.000070  -0.000000
   34  N  2 YY    0.000180  -0.000001   0.000002   0.000001  -0.000000
   35  N  2 ZZ    0.000137   0.000001   0.000000   0.000001  -0.000000
   36  N  2 XY    0.000002   0.000003   0.000000  -0.000002  -0.000000
   37  N  2 XZ    0.000001   0.000000   0.000007  -0.000002   0.000000
   38  N  2 YZ   -0.000000   0.000000   0.000000   0.000000   0.000000
   39  H  3  S    0.004433   0.001474   0.001086   0.002602   0.000700
   40  H  3  S    0.009329   0.002770   0.001603   0.005437   0.000963
   41  H  4  S    0.007104  -0.000539   0.000433   0.007214  -0.001393
   42  H  4  S    0.014769  -0.001326   0.000269   0.009713  -0.002241
   43  H  5  S    0.005161   0.000259  -0.000002  -0.000000  -0.000000
   44  H  5  S    0.012472   0.000714   0.000051  -0.000127  -0.000022
   45  H  6  S    0.005535  -0.000046  -0.000075  -0.000000  -0.000000
   46  H  6  S    0.013449  -0.000110  -0.000120  -0.000140  -0.000020

                     16         17         18         19         20

   16  C  1 ZZ   -0.000179
   17  C  1 XY   -0.000000   0.001669
   18  C  1 XZ   -0.000000   0.000000   0.004538
   19  C  1 YZ    0.000000  -0.000000  -0.000000   0.000628
   20  N  2  S   -0.000000  -0.000000   0.000000  -0.000000   2.091853
   21  N  2  S    0.000003   0.000001  -0.000000   0.000000  -0.046372
   22  N  2  X    0.000021  -0.000003  -0.000001   0.000002   0.000000
   23  N  2  Y    0.000000  -0.000003  -0.000001   0.000000   0.000000
   24  N  2  Z   -0.000000  -0.000001  -0.000002  -0.000000   0.000000
   25  N  2  S    0.000454   0.000016  -0.000004   0.000007  -0.057619
   26  N  2  X    0.001671  -0.000022  -0.000011   0.000020   0.000000
   27  N  2  Y    0.000013  -0.000093  -0.000007   0.000003  -0.000000
   28  N  2  Z    0.000007  -0.000006  -0.000022  -0.000008  -0.000000
   29  N  2  S    0.000262   0.000014   0.000001   0.000001  -0.005147
   30  N  2  X    0.000454   0.000007   0.000001   0.000001  -0.000000
   31  N  2  Y   -0.000003  -0.000025  -0.000001   0.000001   0.000000
   32  N  2  Z    0.000005  -0.000000  -0.000005  -0.000002   0.000000
   33  N  2 XX   -0.000001  -0.000003  -0.000001  -0.000000   0.000190
   34  N  2 YY   -0.000000  -0.000000   0.000000   0.000000  -0.001329
   35  N  2 ZZ   -0.000000   0.000000  -0.000000   0.000000  -0.001313
   36  N  2 XY    0.000000   0.000000   0.000000  -0.000000   0.000000
   37  N  2 XZ   -0.000000   0.000000  -0.000001  -0.000000   0.000000
   38  N  2 YZ    0.000000  -0.000000  -0.000000   0.000000   0.000000
   39  H  3  S    0.001021   0.002533   0.004530   0.003155  -0.000000
   40  H  3  S    0.001055   0.000495   0.000855   0.000567  -0.000025
   41  H  4  S    0.000490   0.001301   0.006740   0.000190  -0.000000
   42  H  4  S    0.000411   0.000223   0.001244   0.000031  -0.000025
   43  H  5  S   -0.000000   0.000000   0.000000  -0.000000  -0.000351
   44  H  5  S   -0.000040  -0.000003   0.000001  -0.000005   0.003985
   45  H  6  S   -0.000000  -0.000000   0.000000  -0.000000  -0.000351
   46  H  6  S   -0.000036   0.000000  -0.000000  -0.000000   0.003990

                     21         22         23         24         25

   21  N  2  S    0.642523
   22  N  2  X    0.000000   1.726958
   23  N  2  Y    0.000000   0.000000  -0.357525
   24  N  2  Z    0.000000   0.000000   0.000000   0.155369
   25  N  2  S    0.629983  -0.000000   0.000000   0.000000   1.052682
   26  N  2  X    0.000000   0.547982  -0.000000   0.000000  -0.000000
   27  N  2  Y    0.000000  -0.000000  -0.138882   0.000000   0.000000
   28  N  2  Z    0.000000   0.000000   0.000000   0.026263   0.000000
   29  N  2  S    0.062024  -0.000000   0.000000   0.000000   0.184641
   30  N  2  X   -0.000000   0.047215   0.000000   0.000000  -0.000000
   31  N  2  Y   -0.000000   0.000000  -0.010762   0.000000   0.000000
   32  N  2  Z   -0.000000   0.000000   0.000000  -0.003395   0.000000
   33  N  2 XX   -0.032876   0.000000  -0.000000   0.000000  -0.052250
   34  N  2 YY    0.010405  -0.000000  -0.000000  -0.000000   0.015869
   35  N  2 ZZ    0.009709  -0.000000  -0.000000  -0.000000   0.014962
   36  N  2 XY    0.000000  -0.000000   0.000000   0.000000   0.000000
   37  N  2 XZ    0.000000   0.000000   0.000000   0.000000  -0.000000
   38  N  2 YZ   -0.000000   0.000000   0.000000  -0.000000  -0.000000
   39  H  3  S    0.000000   0.000003   0.000000   0.000000   0.000483
   40  H  3  S    0.000724   0.001962   0.000031   0.000146   0.007396
   41  H  4  S    0.000000   0.000004  -0.000000  -0.000000   0.000482
   42  H  4  S    0.000722   0.002170   0.000001  -0.000037   0.007390
   43  H  5  S    0.000898   0.040583   0.022756   0.057255  -0.016650
   44  H  5  S   -0.052174   0.019888   0.009183   0.020588  -0.128337
   45  H  6  S    0.000893   0.075291   0.012824   0.032486  -0.016659
   46  H  6  S   -0.052235   0.035310   0.003583   0.010816  -0.128482

                     26         27         28         29         30

   26  N  2  X    0.643680
   27  N  2  Y   -0.000000  -0.193484
   28  N  2  Z   -0.000000   0.000000   0.006057
   29  N  2  S   -0.000000   0.000000   0.000000   0.058542
   30  N  2  X    0.117862  -0.000000  -0.000000  -0.000000   0.033764
   31  N  2  Y   -0.000000  -0.028195   0.000000   0.000000  -0.000000
   32  N  2  Z   -0.000000   0.000000  -0.009147   0.000000  -0.000000
   33  N  2 XX    0.000000  -0.000000   0.000000  -0.006541  -0.000000
   34  N  2 YY   -0.000000  -0.000000  -0.000000  -0.000354  -0.000000
   35  N  2 ZZ   -0.000000   0.000000  -0.000000  -0.000291   0.000000
   36  N  2 XY   -0.000000   0.000000   0.000000   0.000000  -0.000000
   37  N  2 XZ    0.000000   0.000000   0.000000   0.000000  -0.000000
   38  N  2 YZ    0.000000   0.000000  -0.000000  -0.000000   0.000000
   39  H  3  S    0.001793   0.000005   0.000068   0.002635   0.003443
   40  H  3  S    0.014837   0.000143   0.000889   0.009658   0.009854
   41  H  4  S    0.001930  -0.000003  -0.000065   0.002634   0.003650
   42  H  4  S    0.016245  -0.000005  -0.000384   0.009658   0.010624
   43  H  5  S    0.043898   0.021665   0.054560  -0.019360   0.006215
   44  H  5  S    0.035374   0.014116   0.030416  -0.041140   0.008710
   45  H  6  S    0.079635   0.011523   0.028919  -0.019350   0.009863
   46  H  6  S    0.061338   0.004301   0.014313  -0.041132   0.013831

                     31         32         33         34         35

   31  N  2  Y   -0.008359
   32  N  2  Z    0.000000  -0.003078
   33  N  2 XX   -0.000000  -0.000000   0.005754
   34  N  2 YY   -0.000000   0.000000  -0.000004  -0.000623
   35  N  2 ZZ    0.000000  -0.000000   0.000023  -0.000104  -0.000173
   36  N  2 XY    0.000000  -0.000000   0.000000  -0.000000  -0.000000
   37  N  2 XZ   -0.000000   0.000000   0.000000  -0.000000  -0.000000
   38  N  2 YZ   -0.000000   0.000000   0.000000   0.000000   0.000000
   39  H  3  S   -0.000081   0.000098  -0.000000  -0.000000  -0.000000
   40  H  3  S   -0.000109   0.000463  -0.000160  -0.000017  -0.000019
   41  H  4  S   -0.000004  -0.000185  -0.000000  -0.000000  -0.000000
   42  H  4  S   -0.000004  -0.000405  -0.000178  -0.000015  -0.000016
   43  H  5  S    0.000886   0.001771   0.002588  -0.000440   0.001296
   44  H  5  S    0.001335   0.002353   0.005839  -0.001086  -0.000249
   45  H  6  S   -0.000361  -0.000653   0.007374  -0.000932  -0.002078
   46  H  6  S   -0.000577  -0.000869   0.008624  -0.001635  -0.002189

                     36         37         38         39         40

   36  N  2 XY    0.002665
   37  N  2 XZ    0.000000   0.004435
   38  N  2 YZ   -0.000000  -0.000000  -0.000342
   39  H  3  S    0.000000   0.000000   0.000000   0.252105
   40  H  3  S   -0.000005  -0.000006  -0.000000   0.128050   0.161808
   41  H  4  S    0.000000   0.000000  -0.000000  -0.000015  -0.002786
   42  H  4  S    0.000000   0.000003  -0.000000  -0.002776  -0.002851
   43  H  5  S    0.002177   0.005193   0.001320  -0.000000  -0.000024
   44  H  5  S    0.000249   0.000579   0.000120  -0.000021  -0.000539
   45  H  6  S    0.002135   0.005814  -0.000177  -0.000000  -0.000089
   46  H  6  S    0.000177   0.000508  -0.000030  -0.000090  -0.001172

                     41         42         43         44         45

   41  H  4  S    0.252151
   42  H  4  S    0.128093   0.161888
   43  H  5  S   -0.000000  -0.000088   0.224283
   44  H  5  S   -0.000090  -0.001171   0.074722   0.080316
   45  H  6  S   -0.000000  -0.000024  -0.000300  -0.002483   0.224294
   46  H  6  S   -0.000021  -0.000538  -0.002478   0.006068   0.074795

                     46

   46  H  6  S    0.080439

               ----- POPULATIONS IN EACH AO -----
                             MULLIKEN      LOWDIN
              1  C  1  S      1.99452     1.99039
              2  C  1  S      1.05480     0.65411
              3  C  1  X      2.72989     2.65018
              4  C  1  Y     -1.11352    -1.05586
              5  C  1  Z     -0.10792    -0.12605
              6  C  1  S      1.18924     0.56549
              7  C  1  X      1.18184     1.15681
              8  C  1  Y     -0.83952    -0.78009
              9  C  1  Z     -0.16825    -0.05992
             10  C  1  S      0.01776     0.09487
             11  C  1  X      0.13876     0.15864
             12  C  1  Y     -0.07410    -0.14780
             13  C  1  Z     -0.02723    -0.02480
             14  C  1 XX     -0.03584     0.19967
             15  C  1 YY      0.00005     0.28067
             16  C  1 ZZ      0.00383     0.27192
             17  C  1 XY      0.00610     0.00774
             18  C  1 XZ      0.01785     0.02167
             19  C  1 YZ      0.00459     0.00824
             20  N  2  S      1.99327     1.98234
             21  N  2  S      1.07574     0.78669
             22  N  2  X      2.32307     2.28376
             23  N  2  Y     -0.48719    -0.46045
             24  N  2  Z      0.28680     0.25525
             25  N  2  S      1.04246     0.49579
             26  N  2  X      0.91733     0.94942
             27  N  2  Y     -0.43719    -0.38514
             28  N  2  Z      0.09528     0.14791
             29  N  2  S     -0.02742     0.11807
             30  N  2  X      0.12975     0.15447
             31  N  2  Y     -0.09419    -0.17239
             32  N  2  Z     -0.03439    -0.02391
             33  N  2 XX     -0.04541     0.16623
             34  N  2 YY      0.02148     0.26670
             35  N  2 ZZ      0.02137     0.26150
             36  N  2 XY      0.00758     0.00893
             37  N  2 XZ      0.01670     0.02007
             38  N  2 YZ      0.00090     0.00460
             39  H  3  S      0.60036     0.56538
             40  H  3  S      0.32528     0.34801
             41  H  4  S      0.60045     0.56612
             42  H  4  S      0.32533     0.34812
             43  H  5  S      0.53702     0.48937
             44  H  5  S      0.14785     0.23379
             45  H  6  S      0.53704     0.48968
             46  H  6  S      0.14790     0.23382

          ----- MULLIKEN ATOMIC OVERLAP POPULATIONS -----
          (OFF-DIAGONAL ELEMENTS NEED TO BE MULTIPLIED BY 2)

             1           2           3           4           5

    1    7.4176137
    2   -2.0201134   8.4057956
    3    0.2117833   0.0542094   0.6700135
    4    0.2117199   0.0541897  -0.0084271   0.6702262
    5    0.0759419   0.1560091  -0.0005833  -0.0013488   0.4540429
    6    0.0758986   0.1558398  -0.0013511  -0.0005831   0.0008080

             6

    6    0.4543223

          TOTAL MULLIKEN AND LOWDIN ATOMIC POPULATIONS
       ATOM         MULL.POP.                    LOW.POP.

          TOTAL MULLIKEN AND LOWDIN ATOMIC POPULATIONS
       ATOM         MULL.POP.    CHARGE          LOW.POP.     CHARGE
    1 C             5.972844                     5.865863
    1 C             5.972844    0.027156         5.865863    0.134137
    2 N             6.805930                     6.859851
    2 N             6.805930    0.194070         6.859851    0.140149
    3 H             0.925645                     0.913391
    3 H             0.925645    0.074355         0.913391    0.086609
    4 H             0.925777                     0.914232
    4 H             0.925777    0.074223         0.914232    0.085768
    5 H             0.684870                     0.723161
    5 H             0.684870    0.315130         0.723161    0.276839
    6 H             0.684934                     0.723501
    6 H             0.684934    0.315066         0.723501    0.276499

          -------------------------------
          BOND ORDER AND VALENCE ANALYSIS     BOND ORDER THRESHOLD=0.050
          -------------------------------

                   BOND                       BOND                       BOND
  ATOM PAIR DIST  ORDER      ATOM PAIR DIST  ORDER      ATOM PAIR DIST  ORDER
    1   2  2.380 23.937        1   3  1.122  1.731        1   4  1.122  1.733
    1   5  3.050  0.487        1   6  3.049  0.486        2   3  3.113  0.374
    2   4  3.114  0.375        2   5  1.047  1.251        2   6  1.047  1.252

                       TOTAL       BONDED        FREE
      ATOM            VALENCE     VALENCE     VALENCE
    1 C               -33.063      28.374     -61.437
    2 N               -13.082      27.189     -40.272
    3 H                 0.921       2.149      -1.229
    4 H                 0.921       2.151      -1.231
    5 H                 0.843       1.783      -0.939
    6 H                 0.843       1.782      -0.939

          ---------------------
          ELECTROSTATIC MOMENTS
          ---------------------

 POINT   1           X           Y           Z (BOHR)    CHARGE
                -3.383274    0.437638    0.244836        1.00 (A.U.)
         DX          DY          DZ         /D/  (DEBYE)
     1.512407    0.239801   -0.376139    1.576820
 ...... END OF PROPERTY EVALUATION ......
 CPU     0: STEP CPU TIME=     0.01 TOTAL CPU TIME=       15.4 (    0.3 MIN)
 TOTAL WALL CLOCK TIME=       18.2 SECONDS, CPU UTILIZATION IS  85.12%

 BEGINNING ONE ELECTRON GRADIENT...
 ..... END OF 1-ELECTRON GRADIENT ......
 CPU     0: STEP CPU TIME=     0.01 TOTAL CPU TIME=       15.5 (    0.3 MIN)
 TOTAL WALL CLOCK TIME=       18.2 SECONDS, CPU UTILIZATION IS  85.13%

          ----------------------
          GRADIENT OF THE ENERGY
          ----------------------
 MEMORY FOR GRID POINT CONTRIBUTIONS TO THE TD-DFT GRADIENT=   2130432 WORDS.
 CPU     0: STEP CPU TIME=    19.12 TOTAL CPU TIME=       34.6 (    0.6 MIN)
 TOTAL WALL CLOCK TIME=       40.9 SECONDS, CPU UTILIZATION IS  84.57%

 THE MINIMUM MEMORY REQUIRED FOR THIS RUN IS      90575 WORDS.
 USING    1066095 WORDS FOR 2E- DERIVATIVE INTEGRAL CONTRIBUTIONS.
 THE COARSE/FINE SCHWARZ SCREENINGS SKIPPED          879/         772 BLOCKS.
 THE NUMBER OF GRADIENT INTEGRAL BLOCKS COMPUTED WAS     12791
 ...... END OF 2-ELECTRON GRADIENT ......
 CPU     0: STEP CPU TIME=     0.30 TOTAL CPU TIME=       34.9 (    0.6 MIN)
 TOTAL WALL CLOCK TIME=       41.2 SECONDS, CPU UTILIZATION IS  84.68%

                         ----------------------
                         GRADIENT OF THE ENERGY
                         ----------------------

 UNITS ARE HARTREE/BOHR    E'X               E'Y               E'Z 
    1 C                0.363958283      -0.016194205      -0.045543309
    2 N               -0.408833432       0.074220970       0.017029553
    3 H                0.139144316       0.008637370       0.064753863
    4 H                0.118988009      -0.072081492      -0.065693184
    5 H               -0.114734786      -0.029970040      -0.038056244
    6 H               -0.098522390       0.035387398       0.067509321

                   MAXIMUM GRADIENT =    0.408833432
                       RMS GRADIENT =    0.146452664
  $VIB   
          IVIB=   0 IATOM=   0 ICOORD=   0 E=      -94.6106040774
  3.639582827E-01-1.619420549E-02-4.554330929E-02-4.088334319E-01 7.422097024E-02
  1.702955275E-02 1.391443159E-01 8.637369840E-03 6.475386284E-02 1.189880091E-01
 -7.208149186E-02-6.569318354E-02-1.147347859E-01-2.997004035E-02-3.805624389E-02
 -9.852239005E-02 3.538739761E-02 6.750932114E-02
  1.512407094E+00 2.398006889E-01-3.761388856E-01

..... END OF SINGLE POINT GRADIENT .....
 CPU     0: STEP CPU TIME=     0.00 TOTAL CPU TIME=       34.9 (    0.6 MIN)
 TOTAL WALL CLOCK TIME=       41.2 SECONDS, CPU UTILIZATION IS  84.68%
              2130432  WORDS OF DYNAMIC MEMORY USED
 EXECUTION OF GAMESS TERMINATED NORMALLY Wed Apr 30 16:22:34 2014
 DDI: 263624 bytes (0.3 MB / 0 MWords) used by master data server.

 ----------------------------------------
 CPU timing information for all processes
 ========================================
 0: 34.298 + 0.600 = 34.898
 1: 35.718 + 0.328 = 36.46
 ----------------------------------------
 ddikick.x: exited gracefully.
unset echo
----- accounting info -----
Files used on the master node eam were:
-rw-rw-r-- 1 dulikai dulikai     669 Apr 30 16:21 /tmp/dulikai/gamess.F05
-rw-rw-r-- 1 dulikai dulikai 3060272 Apr 30 16:21 /tmp/dulikai/gamess.F08
-rw-rw-r-- 1 dulikai dulikai 3600320 Apr 30 16:21 /tmp/dulikai/gamess.F08.001
-rw-rw-r-- 1 dulikai dulikai 1701440 Apr 30 16:22 /tmp/dulikai/gamess.F10
-rw-rw-r-- 1 dulikai dulikai 1796336 Apr 30 16:22 /tmp/dulikai/gamess.F22
-rw-rw-r-- 1 dulikai dulikai 1796336 Apr 30 16:22 /tmp/dulikai/gamess.F22.001
ls: No match.
ls: No match.
ls: No match.
Wed Apr 30 16:22:37 CST 2014
0.0u 0.0s 0:44.37 0.0% 0+0k 80+320io 1pf+0w
