           6
AU Step:          0 Time:        0.0000000000
C         -4.6519303176         0.5998128696         0.3398868982
N         -2.2608770381         0.2887926719         0.1639860874
H         -5.4359572810         1.6738523232         1.9355499129
H         -5.9049774807        -0.2096157926        -1.1054962128
H         -1.4584057807        -0.7055453144        -1.3031360550
H         -1.0294464523         1.0187814049         1.4814502350
           6
AU Step:          1 Time:       20.6703963588
C         -4.6545579576         0.6001546399         0.3400803019
N         -2.2587036306         0.2885100099         0.1638260867
H         -5.4357488040         1.6733179718         1.9347321492
H         -5.9045229176        -0.2091676112        -1.1047279716
H         -1.4581447462        -0.7054188379        -1.3029000947
H         -1.0292617552         1.0185965007         1.4811826065
           6
AU Step:          2 Time:       41.3407927177
C         -4.6622793406         0.6011589410         0.3406486276
N         -2.2523146473         0.2876790984         0.1633557492
H         -5.4352054444         1.6718182196         1.9324315049
H         -5.9032860663        -0.2078992335        -1.1025605210
H         -1.4573198452        -0.7050952734        -1.3022750293
H         -1.0286416995         1.0180836035         1.4804544876
           6
AU Step:          3 Time:       62.0111890765
C         -4.6746916908         0.6027733854         0.3415622369
N         -2.2420361868         0.2863423649         0.1625990914
H         -5.4345588053         1.6696397519         1.9290711154
H         -5.9016224750        -0.2060210572        -1.0993737622
H         -1.4558052379        -0.7047318654        -1.3014928392
H         -1.0273929097         1.0173583347         1.4794740562
           6
AU Step:          4 Time:       82.6815854354
C         -4.6912542424         0.6049276370         0.3427813386
N         -2.2283039849         0.2845565055         0.1615882059
H         -5.4341603024         1.6672138920         1.9252872646
H         -5.9000698440        -0.2038500728        -1.0957385145
H         -1.4534013056        -0.7045650004        -1.3009007833
H         -1.0252147457         1.0165918262         1.4785512967
           6
AU Step:          5 Time:      103.3519817942
C         -4.7113345645         0.6075394331         0.3442593894
N         -2.2116255287         0.2823875571         0.1603604695
H         -5.4344447287         1.6650781744         1.9218734826
H         -5.8992952465        -0.2017815067        -1.0923670764
H         -1.4498601082        -0.7048814607        -1.3009192475
H         -1.0217372252         1.0159902616         1.4780605713
           6
AU Step:          6 Time:      124.0223781531
C         -4.7342583420         0.6105210593         0.3459467599
N         -2.1925399147         0.2799056763         0.1589555904
H         -5.4358821106         1.6638223190         1.9197016222
H         -5.9000240254        -0.2002500902        -1.0900431074
H         -1.4449192720        -0.7059804713        -1.3019859821
H         -1.0165710484         1.0157678263         1.4783910301
           6
AU Step:          7 Time:      144.6927745119
C         -4.7593562082         0.6137854478         0.3477941791
N         -2.1715810078         0.2771803368         0.1574128885
H         -5.4389214609         1.6640195005         1.9196211802
H         -5.9029540397        -0.1996802758        -1.0895314222
H         -1.4383406396        -0.7081296463        -1.3044908063
H         -1.0093649442         1.0161152035         1.4798885254
           6
AU Step:          8 Time:      165.3631708708
C         -4.7860028103         0.6172512593         0.3497556079
N         -2.1492478124         0.2742764675         0.1557691109
H         -5.4439337788         1.6661476296         1.9223464888
H         -5.9086648513        -0.2004277703        -1.0914760910
H         -1.4299478243        -0.7115221901        -1.3087083104
H         -0.9998621111         1.0171690524         1.4827953442
           6
AU Step:          9 Time:      186.0335672296
C         -4.8089858441         0.6202410280         0.3514467727
N         -2.1288214782         0.2716206359         0.1542658379
H         -5.4656868915         1.6787492101         1.9394706062
H         -5.9351176372        -0.2067908246        -1.1050560525
H         -1.4131971295        -0.7191309159        -1.3184468168
H         -0.9804976162         1.0200640338         1.4898828089
           6
AU Step:         10 Time:      206.7039635885
C         -4.8328267367         0.6233421220         0.3532010641
N         -2.1076616325         0.2688696636         0.1527086657
H         -5.4885903469         1.6924853005         1.9582315264
H         -5.9638798584        -0.2139303089        -1.1200686254
H         -1.3993130923        -0.7274745346        -1.3291817403
H         -0.9595692471         1.0233200101         1.4977554018
           6
AU Step:         11 Time:      227.3743599473
C         -4.8573121647         0.6265267588         0.3550029715
N         -2.0860055866         0.2660583723         0.1511211839
H         -5.5119588286         1.7064173242         1.9772459251
H         -5.9931267268        -0.2211252150        -1.1352395168
H         -1.3843953762        -0.7360812246        -1.3402136242
H         -0.9377674358         1.0265374115         1.5056799331
           6
AU Step:         12 Time:      248.0447563062
C         -4.8822576622         0.6297712638         0.3568393648
N         -2.0640556861         0.2632158758         0.1495225925
H         -5.5351678446         1.7196745788         1.9952232368
H         -6.0218317023        -0.2277096617        -1.1493825063
H         -1.3688126767        -0.7444838077        -1.3508362121
H         -0.9157650525         1.0293240515         1.5129444168
           6
AU Step:         13 Time:      268.7151526650
C         -4.9074978932         0.6330545102         0.3586988139
N         -2.0419864212         0.2603661730         0.1479276959
H         -5.5576914031         1.7315176969         2.0110653941
H         -6.0491296820        -0.2331197616        -1.1614920170
H         -1.3529073836        -0.7522472716        -1.3604044358
H         -0.8941603659         1.0313368734         1.5189268069
           6
AU Step:         14 Time:      289.3855490239
C         -4.9328794082         0.6363571210         0.3605710193
N         -2.0199511423         0.2575289661         0.1463472972
H         -5.5791222356         1.7413784011         2.0239284268
H         -6.0743549038        -0.2369254188        -1.1707994994
H         -1.3369721076        -0.7590143697        -1.3683908396
H         -0.8734353848         1.0323125996         1.5231477300
           6
AU Step:         15 Time:      310.0559453827
C         -4.9582556376         0.6396609135         0.3624463643
N         -1.9980877381         0.2547205324         0.1447888101
H         -5.5991785038         1.7488790810         2.0332530187
H         -6.0970559925        -0.2388463396        -1.1768011400
H         -1.3212343758        -0.7645328491        -1.3744259408
H         -0.8539301735         1.0320875950         1.5253048142
           6
AU Step:         16 Time:      330.7263417416
C         -4.9834835802         0.6429483003         0.3643155921
N         -1.9765230452         0.2519545373         0.1432569465
H         -5.6177014025         1.7538379565         2.0387733361
H         -6.1169955231        -0.2387568509        -1.1792655958
H         -1.3058490124        -0.7686714149        -1.3783220050
H         -0.8358314770         1.0306078590         1.5252897253
           6
AU Step:         17 Time:      351.3967381004
C         -5.0084216882         0.6462019861         0.3661695886
N         -1.9553759441         0.2492427315         0.1417543951
H         -5.6346473422         1.7562649297         2.0405115219
H         -6.1341401468        -0.2366834983        -1.1782289403
H         -1.2908971824        -0.7714252630        -1.3800812627
H         -0.8191735566         1.0279302576         1.5231898681
           6
AU Step:         18 Time:      372.0671344593
C         -5.0329286740         0.6494046791         0.3679992485
N         -1.9347591532         0.2465955152         0.1402824623
H         -5.6500769479         1.7563511724         2.0387630088
H         -6.1486448345        -0.2327977216        -1.1739810400
H         -1.2763910435        -0.7729120137        -1.3798898483
H         -0.8038495893         1.0242158640         1.5192762582
           6
AU Step:         19 Time:      392.7375308181
C         -5.0568631924         0.6525390175         0.3697954225
N         -1.9147797377         0.2440223791         0.1388416849
H         -5.6641417131         1.7544532480         2.0340731419
H         -6.1608324114        -0.2274041301        -1.1670443167
H         -1.2622831620        -0.7733588190        -1.3780983684
H         -0.7896327704         1.0197157340         1.5139782042
           6
AU Step:         20 Time:      413.4079271770
C         -5.0800845743         0.6555877178         0.3715489350
N         -1.8955383286         0.2415322252         0.1374324272
H         -5.6770680088         1.7510705940         2.0272038574
H         -6.1711673449        -0.2209232261        -1.1581429770
H         -1.2484802925        -0.7730807352        -1.3751893728
H         -0.7762068625         1.0147491449         1.5078448561
           6
AU Step:         21 Time:      434.0783235358
C         -5.1024548791         0.6585338015         0.3732506831
N         -1.8771271130         0.2391335730         0.1360554636
H         -5.6891374770         1.7468139751         2.0190865644
H         -6.1802216115        -0.2138664868        -1.1481590914
H         -1.2348610734        -0.7724507262        -1.3717322020
H         -0.7632057006         1.0096745244         1.5014940532
           6
AU Step:         22 Time:      454.7487198947
C         -5.1238424980         0.6613609942         0.3748918195
N         -1.8596267931         0.2368346453         0.1347125130
H         -5.7006628701         1.7423624628         2.0107572691
H         -6.1886304604        -0.2068016734        -1.1380718318
H         -1.2212969612        -0.7718624542        -1.3683269181
H         -0.7502599859         1.0048543099         1.4955506498
           6
AU Step:         23 Time:      475.4191162535
C         -5.1441273502         0.6640543287         0.3764640133
N         -1.8431029284         0.2346433103         0.1334066330
H         -5.7119591379         1.7384080267         2.0032727769
H         -6.1970373158        -0.2003074388        -1.1288783181
H         -1.2076749561        -0.7716883557        -1.3655411689
H         -0.7370474850         1.0006166551         1.4905794400
           6
AU Step:         24 Time:      496.0895126123
C         -5.1632072821         0.6666009255         0.3779597721
N         -1.8276023122         0.2325668635         0.1321423621
H         -5.7233111778         1.7355901083         1.9976115004
H         -6.2060304382        -0.1949191683        -1.1214994961
H         -1.1939198310        -0.7722374385        -1.3638466694
H         -0.7233404840         0.9972187003         1.4870209544
           6
AU Step:         25 Time:      516.7599089712
C         -5.1810047984         0.6689908327         0.3793728076
N         -1.8131502023         0.2306116539         0.1309255074
H         -5.7349415027         1.7344268699         1.9945688831
H         -6.2160780053        -0.1910717507        -1.1166809580
H         -1.1800127151        -0.7737187776        -1.3635642481
H         -0.7090427383         0.9948173329         1.4851404846
           6
AU Step:         26 Time:      537.4303053300
C         -5.1974727940         0.6712176573         0.3806983816
N         -1.7997491822         0.2287826177         0.1297625691
H         -5.7469828495         1.7352540298         1.9946642092
H         -6.2274719451        -0.1890484702        -1.1149047083
H         -1.1660028230        -0.7762169214        -1.3648268461
H         -0.6942088206         0.9934528932         1.4849999105
           6
AU Step:         27 Time:      558.1007016889
C         -5.2125978495         0.6732790126         0.3819335885
N         -1.7873801582         0.2270828225         0.1286598968
H         -5.7594610778         1.7381835785         1.9980773774
H         -6.2402919586        -0.1889466233        -1.1163299679
H         -1.1520098855        -0.7796839514        -1.3675675218
H         -0.6790416442         0.9930491401         1.4864580993
           6
AU Step:         28 Time:      578.7710980477
C         -5.2264000213         0.6751765634         0.3830774717
N         -1.7760055316         0.2255131555         0.1276227738
H         -5.7722924012         1.7430922643         2.0046308938
H         -6.2543981712        -0.1906680359        -1.1207771693
H         -1.1382165586        -0.7839497673        -1.3715347815
H         -0.6638685952         0.9934292783         1.4891995135
           6
AU Step:         29 Time:      599.4414944066
C         -5.2389288742         0.6769156449         0.3841309640
N         -1.7655740968         0.2240722625         0.1266546575
H         -5.7852957017         1.7496428066         2.0138217824
H         -6.2694545344        -0.1939371565        -1.1277595387
H         -1.1248520928        -0.7887484052        -1.3763319281
H         -0.6491013473         0.9943444026         1.4927846032
           6
AU Step:         30 Time:      620.1118907654
C         -5.2502564714         0.6785045335         0.3850966187
N         -1.7560268889         0.2227567777         0.1257567376
H         -5.7982170970         1.7573328079         2.0248956856
H         -6.2849772613        -0.1983422372        -1.1365545223
H         -1.1121702652        -0.7937551634        -1.3814724961
H         -0.6351872109         0.9955086000         1.4967118377
           6
AU Step:         31 Time:      640.7822871243
C         -5.2604687028         0.6799534972         0.3859781892
N         -1.7473031264         0.2215618058         0.1249278622
H         -5.8107612944         1.7655600882         2.0369462210
H         -6.3003973409        -0.2033901738        -1.1462985703
H         -1.1004252483        -0.7986279453        -1.3864418861
H         -0.6225601479         0.9966346808         1.5004808192
           6
AU Step:         32 Time:      661.4526834831
C         -5.2696564611         0.6812737449         0.3867801236
N         -1.7393455328         0.2204815694         0.1241647961
H         -5.8226238196         1.7736915762         2.0490200135
H         -6.3151250520        -0.2085641158        -1.1560866071
H         -1.0898488247        -0.8030467923        -1.3907561776
H         -0.6115980053         0.9974657027         1.5036479686
           6
AU Step:         33 Time:      682.1230798420
C         -5.2779078828         0.6824764769         0.3875070525
N         -1.7321045920         0.2195101029         0.1234626778
H         -5.8335193716         1.7811251210         2.0602111424
H         -6.3286068116        -0.2133750022        -1.1650608190
H         -1.0806314266        -0.8067471427        -1.3940114132
H         -0.6025896072         0.9977994909         1.5058699134
           6
AU Step:         34 Time:      702.7934762008
C         -5.2853023149         0.6835721396         0.3881633220
N         -1.7255415451         0.2186419062         0.1228155733
H         -5.8432037144         1.7873381299         2.0697357376
H         -6.3403690416        -0.2174019414        -1.1724801469
H         -1.0729082656        -0.8095445243        -1.3959199944
H         -0.5957131119         0.9975050569         1.5069326387
           6
AU Step:         35 Time:      723.4638725597
C         -5.2919061525         0.6845698848         0.3887526288
N         -1.7196301135         0.2178724937         0.1222170232
H         -5.8514885091         1.7919212121         2.0769838241
H         -6.3500479459        -0.2203201782        -1.1777681593
H         -1.0667509824        -0.8113498865        -1.3963329870
H         -0.5910254116         0.9965309961         1.5067665938
           6
AU Step:         36 Time:      744.1342689185
C         -5.2977703572         0.6854772571         0.3892777545
N         -1.7143570365         0.2171988226         0.1216605498
H         -5.8582498439         1.7945981170         2.0815502734
H         -6.3574066537        -0.2219177277        -1.1805412635
H         -1.0621645683        -0.8121759414        -1.3952488924
H         -0.5884616414         0.9949064545         1.5054487985
           6
AU Step:         37 Time:      764.8046652774
C         -5.3029293175         0.6863000375         0.3897403837
N         -1.7097215121         0.2166195880         0.1211400933
H         -5.8634318181         1.7952346373         2.0832490980
H         -6.3623423654        -0.2221028939        -1.1806211370
H         -1.0590892685        -0.8121349304        -1.3928095938
H         -0.5878438999         0.9927352728         1.5031930368
           6
AU Step:         38 Time:      785.4750616362
C         -5.3074007223         0.6870422408         0.3901410167
N         -1.7057336198         0.2161353998         0.1206503949
H         -5.8670464083         1.7938389477         2.0821370136
H         -6.3648861071        -0.2209048978        -1.1780351110
H         -1.0574070928        -0.8114247828        -1.3892844276
H         -0.5888985416         0.9901837239         1.5003288525
           6
AU Step:         39 Time:      806.1454579951
C         -5.3111862568         0.6877062788         0.3904790237
N         -1.7024118006         0.2157488546         0.1201873286
H         -5.8691702310         1.7905545463         2.0784836350
H         -6.3651966811        -0.2184690003        -1.1730070626
H         -1.0569526000        -0.8103148267        -1.3850431818
H         -0.5912814081         0.9874622326         1.4972701001
           6
AU Step:         40 Time:      826.8158543539
C         -5.3142730186         0.6882932361         0.3907527695
N         -1.6997795016         0.2154644814         0.1197481586
H         -5.8699386907         1.7856469769         2.0727314282
H         -6.3635493734        -0.2150466495        -1.1659395729
H         -1.0575276444        -0.8091247938        -1.3805188750
H         -0.5946099913         0.9848018171         1.4944742086
           6
AU Step:         41 Time:      847.4862507128
C         -5.3166356766         0.6888031708         0.3909596835
N         -1.6978611904         0.2152885405         0.1193316815
H         -5.8695376429         1.7794847970         2.0654639063
H         -6.3603188707        -0.2109802033        -1.1573867074
H         -1.0589193917        -0.8081952497        -1.3761621557
H         -0.5985004838         0.9824267226         1.4923946312
           6
AU Step:         42 Time:      868.1566470716
C         -5.3182394856         0.6892354761         0.3910962717
N         -1.6966780926         0.2152286483         0.1189381846
H         -5.8681920895         1.7725139572         2.0573874318
H         -6.3559553727        -0.2066813862        -1.1480160278
H         -1.0609202954        -0.8078504822        -1.3723907093
H         -0.6026063198         0.9805257784         1.4914307986
           6
AU Step:         43 Time:      888.8270434305
C         -5.3190442610         0.6895892984         0.3911581613
N         -1.6962441564         0.2152932477         0.1185691844
H         -5.8661512752         1.7652243209         2.0493033926
H         -6.3509531645        -0.2026028124        -1.1385586198
H         -1.0633478407        -0.8083610771        -1.3695392932
H         -0.6066534814         0.9792259875         1.4918816799
           6
AU Step:         44 Time:      909.4974397893
C         -5.3190093093         0.6898641050         0.3911403003
N         -1.6965628250         0.2154909674         0.1182269303
H         -5.8636698686         1.7581078355         2.0420254463
H         -6.3458119127        -0.1992028076        -1.1297478743
H         -1.0660613930        -0.8099181698        -1.3678172678
H         -0.6104672581         0.9785723664         1.4939100267
           6
AU Step:         45 Time:      930.1678361482
C         -5.3180990222         0.6900602980         0.3910372286
N         -1.6976251412         0.2158299318         0.1179137021
H         -5.8609864796         1.7516114429         2.0362823152
H         -6.3409927838        -0.1969054433        -1.1222504438
H         -1.0689736188        -0.8126179550        -1.3672802730
H         -0.6139858812         0.9785176338         1.4975235757
           6
AU Step:         46 Time:      950.8382325070
C         -5.3162885292         0.6901797285         0.3908433187
N         -1.6994094919         0.2163171286         0.1176310236
H         -5.8583020073         1.7460905337         2.0326906125
H         -6.3368739419        -0.1960599045        -1.1165968448
H         -1.0720546137        -0.8164472577        -1.3678210854
H         -0.6172587453         0.9789237079         1.5025766159
           6
AU Step:         47 Time:      971.5086288658
C         -5.3135686765         0.6902261788         0.3905531833
N         -1.7018830061         0.2169579663         0.1173789401
H         -5.8557601364         1.7417679080         2.0316694735
H         -6.3337117806        -0.1969049392        -1.1131215907
H         -1.0753280311        -0.8212940324        -1.3691816029
H         -0.6204297804         0.9795747237         1.5087917605
           6
AU Step:         48 Time:      992.1790252247
C         -5.3099494293         0.6902056642         0.3901621383
N         -1.7050042922         0.2177561011         0.1171555051
H         -5.8534336504         1.7387062893         2.0333959541
H         -6.3316148792        -0.1995447824        -1.1119239581
H         -1.0788601937        -0.8269672761        -1.3709836312
H         -0.6237095012         0.9801990698         1.5157976591
           6
AU Step:         49 Time:     1012.8494215835
C         -5.3054610237         0.6901264883         0.3896666382
N         -1.7087269749         0.2187135564         0.1169565545
H         -5.8513192904         1.7368000816         2.0377894054
H         -6.3305359023        -0.2039413660        -1.1128573422
H         -1.0827444416        -0.8332259623        -1.3727727765
H         -0.6273410102         0.9804964821         1.5231758740
           6
AU Step:         50 Time:     1033.5198179424
C         -5.3001526233         0.6899990241         0.3890646057
N         -1.7130034580         0.2198310985         0.1167757634
H         -5.8493422700         1.7357882888         2.0445278624
H         -6.3302832513        -0.2099245388        -1.1155497469
H         -1.0870834277        -0.8398124089        -1.3740682381
H         -0.6315652709         0.9801660076         1.5305097955
           6
AU Step:         51 Time:     1054.1902143012
C         -5.2940887667         0.6898352712         0.3883555898
N         -1.7177883797         0.2211087907         0.1166049304
H         -5.8473694883         1.7352860013         2.0530939424
H         -6.3305500049        -0.2172181117        -1.1194512131
H         -1.0919720760        -0.8464851240        -1.3744113056
H         -0.6365902971         0.9789311507         1.5374291661
           6
AU Step:         52 Time:     1074.8606106601
C         -5.2873443308         0.6896482428         0.3875407221
N         -1.7230414212         0.2225466311         0.1164343914
H         -5.8452287659         1.7348281755         2.0628620209
H         -6.3309542835        -0.2254764294        -1.1238985681
H         -1.0974831284        -0.8530440185        -1.3734071167
H         -0.6425670027         0.9765598515         1.5436461268
           6
AU Step:         53 Time:     1095.5310070189
C         -5.2799989347         0.6894513875         0.3866226000
N         -1.7287292777         0.2241452066         0.1162534834
H         -5.8427303082         1.7339171120         2.0731050585
H         -6.3310839386        -0.2343249615        -1.1281861429
H         -1.1036564002        -0.8593636863        -1.3707564026
H         -0.6495730915         0.9728780356         1.5489805530
           6
AU Step:         54 Time:     1116.2014033778
C         -5.2721315227         0.6892579094         0.3856047964
N         -1.7348267242         0.2259062735         0.1160509796
H         -5.8396882618         1.7320691344         2.0831306004
H         -6.3305388946        -0.2433989479        -1.1316320786
H         -1.1104924184        -0.8653976766        -1.3662752684
H         -0.6576052585         0.9677764440         1.5533739114
           6
AU Step:         55 Time:     1136.8717997366
C         -5.2638157943         0.6890802685         0.3844914201
N         -1.7413168061         0.2278332508         0.1158154695
H         -5.8359389090         1.7288528933         2.0923203061
H         -6.3289668802        -0.2523760751        -1.1336334408
H         -1.1179502631        -0.8711888247        -1.3599032069
H         -0.6665792377         0.9612110217         1.5568920402
           6
AU Step:         56 Time:     1157.5421960955
C         -5.2551167347         0.6889298497         0.3832866779
N         -1.7481901858         0.2299315914         0.1155356851
H         -5.8313546861         1.7239178083         2.1001756363
H         -6.3260904094        -0.2610012416        -1.1337069632
H         -1.1259494990        -0.8768685753        -1.3516996392
H         -0.6763372934         0.9531972881         1.5597171906
           6
AU Step:         57 Time:     1178.2125924543
C         -5.2460882955         0.6888167980         0.3819944690
N         -1.7554437098         0.2322089993         0.1152007725
H         -5.8258537944         1.7170124193         2.1063492915
H         -6.3217247505        -0.2691031893        -1.1315152210
H         -1.1343759324        -0.8826487172        -1.3418298739
H         -0.6866624336         0.9437994432         1.5621301755
           6
AU Step:         58 Time:     1198.8829888132
C         -5.2367721208         0.6887500126         0.3806180510
N         -1.7630782550         0.2346754426         0.1148005158
H         -5.8194057758         1.7079935923         2.1106624533
H         -6.3157878401        -0.2766038430        -1.1268798313
H         -1.1430909479        -0.8888059423        -1.3305413649
H         -0.6972987010         0.9331150370         1.5644833969
           6
AU Step:         59 Time:     1219.5533851720
C         -5.2271971881         0.6887372516         0.3791597649
N         -1.7710959583         0.2373429112         0.1143255211
H         -5.8120335777         1.6968279764         2.1131100050
H         -6.3083032278        -0.2835213494        -1.1197836783
H         -1.1519440248        -0.8956597495        -1.3181318172
H         -0.7079764248         0.9212564745         1.5671662228
           6
AU Step:         60 Time:     1240.2237815309
C         -5.2173802481         0.6887853309         0.3776208305
N         -1.7794970219         0.2402248578         0.1137673471
H         -5.8038125622         1.6835869167         2.1138569445
H         -6.2993969992        -0.2899676902        -1.1103637490
H         -1.1607876683        -0.9035445426        -1.3049115369
H         -0.7184405073         0.9083312349         1.5705652676
           6
AU Step:         61 Time:     1260.8941778897
C         -5.2073270137         0.6889003892         0.3760012106
N         -1.7882763568         0.2433352850         0.1131185658
H         -5.7948666520         1.6684356069         2.1132253610
H         -6.2892890668        -0.2961411676        -1.0988955914
H         -1.1694937152        -0.9127780068        -1.2911634339
H         -0.7284791657         0.8944231803         1.5750232528
           6
AU Step:         62 Time:     1281.5645742486
C         -5.1970341053         0.6890881922         0.3742995797
N         -1.7974204487         0.2466875153         0.1123727672
H         -5.7853615075         1.6516167927         2.1116706487
H         -6.2782787792        -0.3023136658        -1.0857696522
H         -1.1779691753        -0.9236292447        -1.2771056555
H         -0.7379496815         0.8795776542         1.5808012656
           6
AU Step:         63 Time:     1302.2349706074
C         -5.1864917882         0.6893543804         0.3725134180
N         -1.8069048560         0.2502927131         0.1115244776
H         -5.7754945549         1.6334293352         2.1097543240
H         -6.2667244945        -0.3088122153        -1.0714595758
H         -1.1861697359        -0.9362889735        -1.2628617793
H         -0.7467974329         0.8637929688         1.5880497763
           6
AU Step:         64 Time:     1322.9053669663
C         -5.1756875045         0.6897046555         0.3706393172
N         -1.8166927199         0.2541583652         0.1105690652
H         -5.7654816439         1.6142019353         2.1081022997
H         -6.2550171521        -0.3159946565        -1.0564829351
H         -1.1941087246        -0.9508479483        -1.2484437619
H         -0.7550653271         0.8470198273         1.5967926775
           6
AU Step:         65 Time:     1343.5757633251
C         -5.1646100940         0.6901448079         0.3686735527
N         -1.8267345219         0.2582869234         0.1095026432
H         -5.7555406096         1.5942633228         2.1073462530
H         -6.2435486347        -0.3242198735        -1.0413561809
H         -1.2018601083        -0.9672873278        -1.2337504159