           6
ANG Step:          0 Time:        0.0000000000
C         -2.4616955000         0.3174073000         0.1798604000
N         -1.1964046000         0.1528225000         0.0867777000
H         -2.8765847000         0.8857645000         1.0242489000
H         -3.1247795000        -0.1109239000        -0.5850034000
H         -0.7717551000        -0.3733585000        -0.6895899000
H         -0.5447596000         0.5391159000         0.7839497000
           6
ANG Step:          1 Time:       20.6703963588
C         -2.4630859872         0.3175881571         0.1799627449
N         -1.1952544823         0.1526729217         0.0866930312
H         -2.8764743787         0.8854817334         1.0238161581
H         -3.1245389556        -0.1106867326        -0.5845968643
H         -0.7716169665        -0.3732915715        -0.6894650352
H         -0.5446618625         0.5390180529         0.7838080771
           6
ANG Step:          2 Time:       41.3407927177
C         -2.4671719671         0.3181196103         0.1802634899
N         -1.1918735779         0.1522332223         0.0864441394
H         -2.8761868452         0.8846880987         1.0225987096
H         -3.1238844421        -0.1100155361        -0.5834498988
H         -0.7711804477        -0.3731203486        -0.6891342648
H         -0.5443337432         0.5387466394         0.7834227732
           6
ANG Step:          3 Time:       62.0111890765
C         -2.4737403000         0.3189739375         0.1807469511
N         -1.1864344509         0.1515258533         0.0860437333
H         -2.8758446585         0.8835353033         1.0208204680
H         -3.1230041075        -0.1090216480        -0.5817635387
H         -0.7703789520        -0.3729280413        -0.6887203476
H         -0.5436729121         0.5383628437         0.7829039513
           6
ANG Step:          4 Time:       82.6815854354
C         -2.4825048248         0.3201139184         0.1813920719
N         -1.1791676826         0.1505808172         0.0855087957
H         -2.8756337799         0.8822515935         1.0188181404
H         -3.1221824905        -0.1078728125        -0.5798398484
H         -0.7691068459        -0.3728397402        -0.6884070452
H         -0.5425202774         0.5379572249         0.7824156479
           6
ANG Step:          5 Time:      103.3519817942
C         -2.4931308736         0.3214960213         0.1821742227
N         -1.1703418237         0.1494330592         0.0848591056
H         -2.8757842918         0.8811214204         1.0170116448
H         -3.1217725912        -0.1067781745        -0.5780557603
H         -0.7672329249        -0.3730072037        -0.6884168160
H         -0.5406800527         0.5376388906         0.7821559672
           6
ANG Step:          6 Time:      124.0223781531
C         -2.5052616142         0.3230738300         0.1830671407
N         -1.1602421518         0.1481197045         0.0841156756
H         -2.8765449215         0.8804568503         1.0158623457
H         -3.1221582444        -0.1059677838        -0.5768259688
H         -0.7646183470        -0.3735887751        -0.6889813076
H         -0.5379462297         0.5375211829         0.7823308385
           6
ANG Step:          7 Time:      144.6927745119
C         -2.5185428329         0.3248012699         0.1840447529
N         -1.1491511760         0.1466775169         0.0832993129
H         -2.8781532764         0.8805611943         1.0158197777
H         -3.1237087412        -0.1056662510        -0.5765551967
H         -0.7611370846        -0.3747260695        -0.6903068035
H         -0.5341329236         0.5377050070         0.7831232789
           6
ANG Step:          8 Time:      165.3631708708
C         -2.5326436075         0.3266352984         0.1850826963
N         -1.1373329579         0.1451408555         0.0824294633
H         -2.8808056808         0.8816873518         1.0172619489
H         -3.1267307725        -0.1060618080        -0.5775842711
H         -0.7566957981        -0.3765213264        -0.6925386106
H         -0.5291042409         0.5382626798         0.7846615011
           6
ANG Step:          9 Time:      186.0335672296
C         -2.5448057051         0.3282174158         0.1859776221
N         -1.1265238074         0.1437354499         0.0816339655
H         -2.8923169322         0.8883558209         1.0263236415
H         -3.1407289839        -0.1094289913        -0.5847704772
H         -0.7478317122        -0.3805476907        -0.6976920062
H         -0.5188569916         0.5397946380         0.7884120260
           6
ANG Step:         10 Time:      206.7039635885
C         -2.5574217621         0.3298584441         0.1869059532
N         -1.1153264993         0.1422796981         0.0808099454
H         -2.9044369188         0.8956246469         1.0362514929
H         -3.1559492958        -0.1132070437        -0.5927147886
H         -0.7404845961        -0.3849629436        -0.7033726831
H         -0.5077821756         0.5415176264         0.7925780227
           6
ANG Step:         11 Time:      227.3743599473
C         -2.5703788926         0.3315436814         0.1878594815
N         -1.1038666134         0.1407920268         0.0799698863
H         -2.9168029868         0.9029971563         1.0463134793
H         -3.1714260720        -0.1170144240        -0.6007428786
H         -0.7325904807        -0.3895174078        -0.7092105046
H         -0.4962451540         0.5432202019         0.7967715040
           6
ANG Step:         12 Time:      248.0447563062
C         -2.5835794813         0.3332605994         0.1888312590
N         -1.0922512264         0.1392878424         0.0791239481
H         -2.9290846691         0.9100125933         1.0558266630
H         -3.1866160908        -0.1204987631        -0.6082270263
H         -0.7243444714        -0.3939638632        -0.7148317360
H         -0.4846019942         0.5446948283         0.8006157033
           6
ANG Step:         13 Time:      268.7151526650
C         -2.5969360363         0.3349980186         0.1898152371
N         -1.0805726744         0.1377798446         0.0782799652
H         -2.9410036229         0.9162797014         1.0642099716
H         -3.2010615595        -0.1233616647        -0.6146351034
H         -0.7159277527        -0.3980721113        -0.7198950219
H         -0.4731692864         0.5457599678         0.8037814477
           6
ANG Step:         14 Time:      289.3855490239
C         -2.6103673556         0.3367456849         0.1908059655
N         -1.0689121070         0.1362784594         0.0774436542
H         -2.9523443310         0.9214977614         1.0710167953
H         -3.2144101720        -0.1253755317        -0.6195604109
H         -0.7074951679        -0.4016531054        -0.7241212448
H         -0.4622020988         0.5462762998         0.8060150640
           6
ANG Step:         15 Time:      310.0559453827
C         -2.6237958778         0.3384939767         0.1917983553
N         -1.0573424918         0.1347923003         0.0766189384
H         -2.9629576510         0.9254669502         1.0759511568
H         -3.2264230707        -0.1263920393        -0.6227363423
H         -0.6991671189        -0.4045733590        -0.7273148828
H         -0.4518803856         0.5461572326         0.8071565439
           6
ANG Step:         16 Time:      330.7263417416
C         -2.6371459300         0.3402335868         0.1927875081
N         -1.0459309478         0.1333285987         0.0758083110
H         -2.9727595469         0.9280910742         1.0788723829
H         -3.2369746159        -0.1263446839        -0.6240404762
H         -0.6910255352        -0.4067633937        -0.7293765912
H         -0.4423029679         0.5453741900         0.8071485591
           6
ANG Step:         17 Time:      351.3967381004
C         -2.6503426084         0.3419553632         0.1937686008
N         -1.0347403838         0.1318935729         0.0750131951
H         -2.9817269519         0.9293753731         1.0797921912
H         -3.2460471600        -0.1252475129        -0.6234919017
H         -0.6831133675        -0.4082206673        -0.7303075502
H         -0.4334879760         0.5439572643         0.8060373625
           6
ANG Step:         18 Time:      372.0671344593
C         -2.6633111467         0.3436501553         0.1947368151
N         -1.0238304480         0.1304927264         0.0742342818
H         -2.9898919476         0.9294210107         1.0788669180
H         -3.2537227101        -0.1231912485        -0.6212440097
H         -0.6754370494        -0.4090074219        -0.7302062581
H         -0.4253788818         0.5419916919         0.8039663694
           6
ANG Step:         19 Time:      392.7375308181
C         -2.6759767484         0.3453087758         0.1956873094
N         -1.0132577967         0.1291310814         0.0734718552
H         -2.9973347008         0.9284166724         1.0763851473
H         -3.2601720981        -0.1203370828        -0.6175732538
H         -0.6679714801        -0.4092438611        -0.7292582478
H         -0.4178556652         0.5396103257         0.8011627599
           6
ANG Step:         20 Time:      413.4079271770
C         -2.6882649744         0.3469220785         0.1966152283
N         -1.0030756815         0.1278133487         0.0727261082
H         -3.0041750018         0.9266266490         1.0727500785
H         -3.2656411093        -0.1169075361        -0.6128628677
H         -0.6606673162        -0.4090967055        -0.7277188736
H         -0.4107509808         0.5369821199         0.7979171319
           6
ANG Step:         21 Time:      434.0783235358
C         -2.7001028299         0.3484810788         0.1975157546
N         -0.9933328858         0.1265440366         0.0719974505
H         -3.0105618894         0.9243741432         1.0684545920
H         -3.2704324208        -0.1131732705        -0.6075796230
H         -0.6534603358        -0.4087633191        -0.7258894176
H         -0.4038710622         0.5342967464         0.7945564318
           6
ANG Step:         22 Time:      454.7487198947
C         -2.7114206704         0.3499771648         0.1983842065
N         -0.9840721154         0.1253274965         0.0712867916
H         -3.0166608647         0.9220185044         1.0640469188
H         -3.2748821920        -0.1094347323        -0.6022416751
H         -0.6462825168        -0.4084520189        -0.7240874189
H         -0.3970204851         0.5317459987         0.7914113182
           6
ANG Step:         23 Time:      475.4191162535
C         -2.7221549518         0.3514024160         0.1992161757
N         -0.9753280628         0.1241678920         0.0705957497
H         -3.0226385922         0.9199259070         1.0600862961
H         -3.2793309083        -0.1059981313        -0.5973766772
H         -0.6390740621        -0.4083598900        -0.7226132640
H         -0.3900287307         0.5295035284         0.7887806672
           6
ANG Step:         24 Time:      496.0895126123
C         -2.7322516169         0.3527500170         0.2000076972
N         -0.9671254900         0.1230690836         0.0699267263
H         -3.0286458329         0.9184347288         1.0570904776
H         -3.2840898637        -0.1031467814        -0.5934719728
H         -0.6317951635        -0.4086504521        -0.7217165735
H         -0.3827752982         0.5277054082         0.7868975978
           6
ANG Step:         25 Time:      516.7599089712
C         -2.7416696569         0.3540147014         0.2007554433
N         -0.9594777628         0.1220344313         0.0692827945
H         -3.0348003358         0.9178191695         1.0554803939
H         -3.2894068072        -0.1011108157        -0.5909221123
H         -0.6244358347        -0.4094343430        -0.7215671225
H         -0.3752092570         0.5264346593         0.7859024960
           6
ANG Step:         26 Time:      537.4303053300
C         -2.7503841448         0.3551930862         0.2014569069
N         -0.9523862484         0.1210665470         0.0686673941
H         -3.0411723421         0.9182568837         1.0555308383
H         -3.2954362205        -0.1000401417        -0.5899821614
H         -0.6170221191        -0.4107563038        -0.7222352606
H         -0.3673594859         0.5257126289         0.7858281074
           6
ANG Step:         27 Time:      558.1007016889
C         -2.7583879795         0.3562839085         0.2021105502
N         -0.9458408428         0.1201670541         0.0680838850
H         -3.0477755361         0.9198071341         1.0573370091
H         -3.3022202795        -0.0999862467        -0.5907363763
H         -0.6096173755        -0.4125909770        -0.7236855637
H         -0.3593333618         0.5254989720         0.7865997477
           6
ANG Step:         28 Time:      578.7710980477
C         -2.7656917743         0.3572880491         0.2027158672
N         -0.9398216496         0.1193364221         0.0675350632
H         -3.0545655800         0.9224046987         1.0608049806
H         -3.3096849656        -0.1008971790        -0.5930897339
H         -0.6023182612        -0.4148483495        -0.7257849471
H         -0.3513041301         0.5257001324         0.7880504416
           6
ANG Step:         29 Time:      599.4414944066
C         -2.7723217576         0.3582083314         0.2032733512
N         -0.9343015721         0.1185739344         0.0670227581
H         -3.0614466303         0.9258710964         1.0656685894
H         -3.3176524499        -0.1026271231        -0.5967846446
H         -0.5952460905        -0.4173876794        -0.7283234878
H         -0.3434896391         0.5261843953         0.7899475893
           6
ANG Step:         30 Time:      620.1118907654
C         -2.7783160639         0.3590491351         0.2037843537
N         -0.9292494073         0.1178778098         0.0665475994
H         -3.0682843382         0.9299404698         1.0715286466
H         -3.3258667232        -0.1049581914        -0.6014387495
H         -0.5885351564        -0.4200371417        -0.7310437592
H         -0.3361265952         0.5268004621         0.7920257923
           6
ANG Step:         31 Time:      640.7822871243
C         -2.7837201440         0.3598158936         0.2042508607
N         -0.9246329910         0.1172454579         0.0661089774
H         -3.0749224415         0.9342941591         1.0779055153
H         -3.3340266779        -0.1076294444        -0.6065950776
H         -0.5823199612        -0.4226157068        -0.7336734472
H         -0.3294446412         0.5273963584         0.7940202514
           6
ANG Step:         32 Time:      661.4526834831
C         -2.7885820963         0.3605145386         0.2046752262
N         -0.9204220138         0.1166738214         0.0657051802
H         -3.0811998195         0.9385971572         1.0842946911
H         -3.3418202469        -0.1103673766        -0.6117746836
H         -0.5767231588        -0.4249540599        -0.7359564719
H         -0.3236437252         0.5278361162         0.7956962347
           6
ANG Step:         33 Time:      682.1230798420
C         -2.7929485606         0.3611509970         0.2050599003
N         -0.9165902730         0.1161597435         0.0653336352
H         -3.0869654973         0.9425308197         1.0902167814
H         -3.3489544869        -0.1129131880        -0.6165236320
H         -0.5718455218        -0.4269122010        -0.7376790684
H         -0.3188766863         0.5280127493         0.7968720373
           6
ANG Step:         34 Time:      702.7934762008
C         -2.7968615255         0.3617307967         0.2054071832
N         -0.9131172582         0.1157003136         0.0649912022
H         -3.0920902308         0.9458186024         1.0952569801
H         -3.3551787908        -0.1150441525        -0.6204497713
H         -0.5677586011        -0.4283925116        -0.7386890460
H         -0.3152378017         0.5278569416         0.7974344073
           6
ANG Step:         35 Time:      723.4638725597
C         -2.8003561259         0.3622587807         0.2057190310
N         -0.9099890633         0.1152931581         0.0646744632
H         -3.0964743553         0.9482438650         1.0990925023
H         -3.3603006464        -0.1165884169        -0.6232480669
H         -0.5645003071        -0.4293478681        -0.7389075923
H         -0.3127571775         0.5273414908         0.7973465401
           6
ANG Step:         36 Time:      744.1342689185
C         -2.8034593294         0.3627389415         0.2059969155
N         -0.9071986711         0.1149366667         0.0643799902
H         -3.1000522996         0.9496604221         1.1015089632
H         -3.3641947069        -0.1174338037        -0.6247155304
H         -0.5620732813        -0.4297849976        -0.7383339141
H         -0.3114004888         0.5264818204         0.7966491929
           6
ANG Step:         37 Time:      764.8046652774
C         -2.8061893336         0.3631743381         0.2062417283
N         -0.9047456573         0.1146301489         0.0641045764
H         -3.1027944823         0.9499972541         1.1024079425
H         -3.3668065730        -0.1175317894        -0.6247577977
H         -0.5604459027        -0.4297632954        -0.7370430930
H         -0.3110735940         0.5253328805         0.7954554952
           6
ANG Step:         38 Time:      785.4750616362
C         -2.8085554991         0.3635670952         0.2064537342
N         -0.9026353555         0.1143739275         0.0638454392
H         -3.1047072410         0.9492586870         1.1018194527
H         -3.3681526632        -0.1168978372        -0.6233893317
H         -0.5595557337        -0.4293875015        -0.7351776553
H         -0.3116316864         0.5239826590         0.7939398342
           6
ANG Step:         39 Time:      806.1454579951
C         -2.8105587177         0.3639184890         0.2066325998
N         -0.9008775245         0.1141693766         0.0636003950
H         -3.1058311196         0.9475206567         1.0998861681
H         -3.3683170118        -0.1156088157        -0.6207286031
H         -0.5593152265        -0.4288001381        -0.7329332847
H         -0.3128926450         0.5225425078         0.7923212121
           6
ANG Step:         40 Time:      826.8158543539
C         -2.8121921617         0.3642290934         0.2067774598
N         -0.8994845719         0.1140188928         0.0633679963
H         -3.1062377710         0.9449236827         1.0968422313
H         -3.3674452941        -0.1137977857        -0.6169886486
H         -0.5596195269        -0.4281703998        -0.7305391247
H         -0.3146540554         0.5211346766         0.7908416900
           6
ANG Step:         41 Time:      847.4862507128
C         -2.8134424264         0.3644989392         0.2068869540
N         -0.8984694453         0.1139257889         0.0631476061
H         -3.1060255456         0.9416627976         1.0929964244
H         -3.3657357858        -0.1116459151        -0.6124626671
H         -0.5603560078        -0.4276785062        -0.7282336481
H         -0.3167128153         0.5198778307         0.7897412251
           6
ANG Step:         42 Time:      868.1566470716
C         -2.8142911256         0.3647277053         0.2069592333
N         -0.8978433769         0.1138940953         0.0629393765
H         -3.1053135094         0.9379739880         1.0887225381
H         -3.3634267221        -0.1093710790        -0.6075039170
H         -0.5614148404        -0.4274960631        -0.7262378846
H         -0.3188855302         0.5188718943         0.7892311868
           6
ANG Step:         43 Time:      888.8270434305
C         -2.8147169944         0.3649149400         0.2069919839
N         -0.8976137478         0.1139282799         0.0627441100
H         -3.1042335570         0.9341164787         1.0844446489
H         -3.3607796675        -0.1072127907        -0.6024992722
H         -0.5626994421        -0.4277662583        -0.7247289802
H         -0.3210271958         0.5181840747         0.7894697829
           6
ANG Step:         44 Time:      909.4974397893
C         -2.8146984987         0.3650603614         0.2069825323
N         -0.8977823799         0.1140329086         0.0625629969
H         -3.1029204532         0.9303505968         1.0805933256
H         -3.3580590342        -0.1054135857        -0.5978368265
H         -0.5641353921        -0.4285902363        -0.7238177236
H         -0.3230453596         0.5178381932         0.7905431378
           6
ANG Step:         45 Time:      930.1678361482
C         -2.8142167956         0.3651641823         0.2069279891
N         -0.8983445335         0.1142122808         0.0623972438
H         -3.1015004648         0.9269128539         1.0775541915
H         -3.3555088610        -0.1041978728        -0.5938693572
H         -0.5656764757        -0.4300189011        -0.7235335582
H         -0.3249073347         0.5178092300         0.7924553456
           6
ANG Step:         46 Time:      950.8382325070
C         -2.8132587240         0.3652273821         0.2068253764
N         -0.8992887711         0.1144700943         0.0622476567
H         -3.1000799033         0.9239913146         1.0756535442
H         -3.3533292638        -0.1037504330        -0.5908776015
H         -0.5673068679        -0.4320452808        -0.7238197438
H         -0.3266392598         0.5180241152         0.7951292993
           6
ANG Step:         47 Time:      971.5086288658
C         -2.8118194399         0.3652519626         0.2066718434
N         -0.9005976985         0.1148092110         0.0621142599
H         -3.0987348032         0.9217038796         1.0751131808
H         -3.3516559201        -0.1041976061        -0.5890385762
H         -0.5690390858        -0.4346100835        -0.7245396987
H         -0.3283172993         0.5183686179         0.7984182122
           6
ANG Step:         48 Time:      992.1790252247
C         -2.8099042167         0.3652411068         0.2064649112
N         -0.9022494120         0.1152315657         0.0619960232
H         -3.0975036798         0.9200837407         1.0760267950
H         -3.3505462876        -0.1055945509        -0.5884048163
H         -0.5709082258        -0.4376122348        -0.7254932910
H         -0.3300528528         0.5186990076         0.8021255741
           6
ANG Step:         49 Time:     1012.8494215835
C         -2.8075290548         0.3651992087         0.2062027039
N         -0.9042193708         0.1157382292         0.0618907431
H         -3.0963848087         0.9190750191         1.0783517093
H         -3.3499753177        -0.1079211228        -0.5888987419
H         -0.5729636812        -0.4409241888        -0.7264400659
H         -0.3319745646         0.5188563914         0.8060299572
           6
ANG Step:         50 Time:     1033.5198179424
C         -2.8047199703         0.3651317575         0.2058841220
N         -0.9064823882         0.1163296071         0.0617950725
H         -3.0953386145         0.9185396014         1.0819175471
H         -3.3498416205        -0.1110872814        -0.5903235011
H         -0.5752597738        -0.4444095863        -0.7271255946
H         -0.3342099471         0.5186815118         0.8099109013
           6
ANG Step:         51 Time:     1054.1902143012
C         -2.8015111156         0.3650451032         0.2055089269
N         -0.9090144597         0.1170057327         0.0617046716
H         -3.0942946634         0.9182738023         1.0864505214
H         -3.3499827804        -0.1149468740        -0.5923880681
H         -0.5778467350        -0.4479406350        -0.7273071381
H         -0.3368690764         0.5180280537         0.8135724745
           6
ANG Step:         52 Time:     1074.8606106601
C         -2.7979421138         0.3649461320         0.2050777175
N         -0.9117942496         0.1177666050         0.0616144262
H         -3.0931618419         0.9180315313         1.0916195659
H         -3.3501967155        -0.1193169875        -0.5947415070
H         -0.5807630583        -0.4514114525        -0.7267757443
H         -0.3400318128         0.5167732162         0.8168623484
           6
ANG Step:         53 Time:     1095.5310070189
C         -2.7940550976         0.3648419607         0.2045918683
N         -0.9148041336         0.1186125348         0.0615186939
H         -3.0918397151         0.9175494172         1.0970399480
H         -3.3502653260        -0.1239994291        -0.5970103939
H         -0.5840298131        -0.4547556767        -0.7253730468
H         -0.3437392754         0.5148248832         0.8196852052
           6
ANG Step:         54 Time:     1116.2014033778
C         -2.7898918425         0.3647395765         0.2040532698
N         -0.9180307633         0.1195444512         0.0614115334
H         -3.0902299334         0.9165715096         1.1023452362
H         -3.3499769011        -0.1288011758        -0.5988339045
H         -0.5876472782        -0.4579487268        -0.7230017327
H         -0.3479897150         0.5121252372         0.8220100703
           6
ANG Step:         55 Time:     1136.8717997366
C         -2.7854913486         0.3646455730         0.2034640964
N         -0.9214651667         0.1205641637         0.0612869068
H         -3.0882458614         0.9148695481         1.1072082191
H         -3.3491450269        -0.1335516669        -0.5998929798
H         -0.5915937996        -0.4610132704        -0.7196297830
H         -0.3527385403         0.5086509653         0.8238717839
           6
ANG Step:         56 Time:     1157.5421960955
C         -2.7808880045         0.3645659748         0.2028265743
N         -0.9251024026         0.1216745577         0.0611388513
H         -3.0858199951         0.9122580136         1.1113650807
H         -3.3476228641        -0.1381159085        -0.5999318862
H         -0.5958268129        -0.4640188650        -0.7152886419
H         -0.3579022810         0.5044102801         0.8253667891
           6
ANG Step:         57 Time:     1178.2125924543
C         -2.7761103602         0.3645061504         0.2021427668
N         -0.9289408022         0.1228797101         0.0609616232
H         -3.0829090486         0.9086038392         1.1146320384
H         -3.3453126570        -0.1424032745        -0.5987720661
H         -0.6002858894        -0.4670775843        -0.7100657871
H         -0.3633661099         0.4994371548         0.8266436857
           6
ANG Step:         58 Time:     1198.8829888132
C         -2.7711804529         0.3644708091         0.2014143978
N         -0.9329808295         0.1241848957         0.0607498165
H         -3.0794969041         0.9038312815         1.1169144653
H         -3.3421709793        -0.1463724495        -0.5963191235
H         -0.6048976770        -0.4703358475        -0.7040921654
H         -0.3689945802         0.4937832106         0.8278889568
           6
ANG Step:         59 Time:     1219.5533851720
C         -2.7661136167         0.3644640563         0.2006427060
N         -0.9372236153         0.1255964592         0.0604984601
H         -3.0755957049         0.8979226920         1.1182096539
H         -3.3382102930        -0.1500330362        -0.5925640011
H         -0.6095825235        -0.4739627261        -0.6975253156
H         -0.3746449882         0.4875079296         0.8293086472
           6
ANG Step:         60 Time:     1240.2237815309
C         -2.7609187158         0.3644894987         0.1998283370
N         -0.9416692667         0.1271215197         0.0602030872
H         -3.0712453308         0.8909158250         1.1186049173
H         -3.3334973198        -0.1534442929        -0.5875791892
H         -0.6142623781        -0.4781351789        -0.6905294445
H         -0.3801823422         0.4806681873         0.8311073442
           6
ANG Step:         61 Time:     1260.8941778897
C         -2.7555987733         0.3645503850         0.1989712711
N         -0.9463150907         0.1287674869         0.0598597669
H         -3.0665113591         0.8828980972         1.1182706976
H         -3.3281484324        -0.1567111564        -0.5815105016
H         -0.6188694197        -0.4830213177        -0.6832542618
H         -0.3854945714         0.4733083619         0.8334664084
           6
ANG Step:         62 Time:     1281.5645742486
C         -2.7501520008         0.3646497660         0.1980708068
N         -0.9511539357         0.1305414108         0.0594651073
H         -3.0614814532         0.8739979640         1.1174479794
H         -3.3223220392        -0.1599775018        -0.5745645537
H         -0.6233544400        -0.4887635455        -0.6758152059
H         -0.3905061525         0.4654524478         0.8365240011
           6
ANG Step:         63 Time:     1302.2349706074
C         -2.7445732468         0.3647906268         0.1971256107
N         -0.9561728679         0.1324491992         0.0590162117
H         -3.0562600868         0.8643735760         1.1164339040
H         -3.3162077750        -0.1634163861        -0.5669919875
H         -0.6276939897        -0.4954627854        -0.6682776712
H         -0.3951881809         0.4570995520         0.8403597477
           6
ANG Step:         64 Time:     1322.9053669663
C         -2.7388558662         0.3649759843         0.1961338793
N         -0.9613523824         0.1344948142         0.0585106293
H         -3.0509614825         0.8541988742         1.1155596904
H         -3.3100125163        -0.1672171702        -0.5590666905
H         -0.6318951216        -0.5031670631        -0.6606479850
H         -0.3995633621         0.4482235878         0.8449862918
           6
ANG Step:         65 Time:     1343.5757633251
C         -2.7329939530         0.3652089030         0.1950936415
N         -0.9666662751         0.1366795531         0.0579463030
H         -3.0457009137         0.8436478149         1.1151596077
H         -3.3039436382        -0.1715697676        -0.5510619570