           6
AU Step:          0 Time:        0.0000000000
C          0.0000000000         0.0000000000         0.0000000000
N          0.0000000000         0.0000000000         0.0000000000
H          0.0000000000         0.0000000000         0.0000000000
H          0.0000000000         0.0000000000         0.0000000000
H          0.0000000000         0.0000000000         0.0000000000
H          0.0000000000         0.0000000000         0.0000000000
           6
AU Step:          1 Time:       20.6703963588
C         -0.0002503344         0.0000325604         0.0000184256
N          0.0002071172        -0.0000269364        -0.0000152474
H          0.0000181863        -0.0000492033        -0.0000754317
H          0.0000409139         0.0000415222         0.0000710120
H          0.0000262679         0.0000108861         0.0000208275
H          0.0000194663        -0.0000168792        -0.0000240863
           6
AU Step:          2 Time:       41.3407927177
C         -0.0004870186         0.0000633453         0.0000358468
N          0.0004031718        -0.0000524336        -0.0000296800
H          0.0000287851        -0.0000889731        -0.0001369358
H          0.0000701593         0.0000761126         0.0001295140
H          0.0000565908         0.0000166173         0.0000340404
H          0.0000452058        -0.0000299502        -0.0000413284
           6
AU Step:          3 Time:       62.0111890765
C         -0.0007008792         0.0000911617         0.0000515885
N          0.0005807983        -0.0000755330        -0.0000427554
H          0.0000252811        -0.0001113749        -0.0001728133
H          0.0000777978         0.0000979459         0.0001650188
H          0.0000947863         0.0000128269         0.0000332419
H          0.0000828952        -0.0000360849        -0.0000460366
           6
AU Step:          4 Time:       82.6815854354
C         -0.0008863612         0.0001152868         0.0000652419
N          0.0007356090        -0.0000956636        -0.0000541504
H          0.0000027594        -0.0001103408        -0.0001741049
H          0.0000562938         0.0001025513         0.0001694860
H          0.0001438078        -0.0000036186         0.0000138747
H          0.0001368064        -0.0000330926        -0.0000341910
           6
AU Step:          5 Time:      103.3519817942
C         -0.0010402340         0.0001353003         0.0000765690
N          0.0008651036        -0.0001124998        -0.0000636808
H         -0.0000416491        -0.0000820394        -0.0001351121
H          0.0000011083         0.0000870806         0.0001377672
H          0.0002051735        -0.0000342391        -0.0000262501
H          0.0002090840        -0.0000199319        -0.0000038767
           6
AU Step:          6 Time:      124.0223781531
C         -0.0011616043         0.0001510860         0.0000855037
N          0.0009686442        -0.0001259584        -0.0000712996
H         -0.0001082885        -0.0000256085        -0.0000544814
H         -0.0000885032         0.0000508271         0.0000685922
H          0.0002786465        -0.0000785710        -0.0000863931
H          0.0002992754         0.0000030222         0.0000442167
           6
AU Step:          7 Time:      144.6927745119
C         -0.0012516564         0.0001627980         0.0000921329
N          0.0010472006        -0.0001361660        -0.0000770783
H         -0.0001947633         0.0000562474         0.0000639772
H         -0.0002090145        -0.0000042979        -0.0000346627
H          0.0003621471        -0.0001340497        -0.0001626076
H          0.0004041755         0.0000338945         0.0001065368
           6
AU Step:          8 Time:      165.3631708708
C         -0.0012198654         0.0001586741         0.0000897785
N          0.0010486578        -0.0001363491        -0.0000771800
H         -0.0007532521         0.0004145341         0.0005586169
H         -0.0009051712        -0.0002001102        -0.0004369054
H          0.0007076068        -0.0003096057        -0.0003927601
H          0.0008124052         0.0001111308         0.0002812664
           6
AU Step:          9 Time:      186.0335672296
C         -0.0011326325         0.0001473330         0.0000833428
N          0.0010059357        -0.0001307862        -0.0000740297
H         -0.0010802059         0.0006370867         0.0008680297
H         -0.0013356059        -0.0003266154        -0.0006916300
H          0.0007410291        -0.0003858742        -0.0004952355
H          0.0009746515         0.0001487866         0.0003618716
           6
AU Step:         10 Time:      206.7039635885
C         -0.0011689742         0.0001520467         0.0000860215
N          0.0010356814        -0.0001345466        -0.0000760666
H         -0.0011192804         0.0006692691         0.0009137541
H         -0.0014031925        -0.0003467372        -0.0007301133
H          0.0006966909        -0.0004100141        -0.0005265213
H          0.0010336082         0.0001565857         0.0003821195
           6
AU Step:         11 Time:      227.3743599473
C         -0.0011956937         0.0001555157         0.0000880075
N          0.0010547922        -0.0001367605        -0.0000770685
H         -0.0011266716         0.0006576864         0.0008947993
H         -0.0014018078        -0.0003333113        -0.0007090788
H          0.0007377801        -0.0004114404        -0.0005238040
H          0.0010595877         0.0001452329         0.0003674099
           6
AU Step:         12 Time:      248.0447563062
C         -0.0012139518         0.0001579010         0.0000893994
N          0.0010647876        -0.0001376896        -0.0000772479
H         -0.0011062336         0.0006071575         0.0008180653
H         -0.0013546657        -0.0002901383        -0.0006350265
H          0.0007616688        -0.0003910435        -0.0004883992
H          0.0010548194         0.0001160951         0.0003204311
           6
AU Step:         13 Time:      268.7151526650
C         -0.0012244987         0.0001593065         0.0000902657
N          0.0010668529        -0.0001375617        -0.0000768078
H         -0.0010632208         0.0005249977         0.0006943551
H         -0.0012704933        -0.0002229216        -0.0005180596
H          0.0007701974        -0.0003514824        -0.0004246321
H          0.0010239201         0.0000722905         0.0002468098
           6
AU Step:         14 Time:      289.3855490239
C         -0.0012277884         0.0001598035         0.0000906502
N          0.0010618733        -0.0001365634        -0.0000759271
H         -0.0010035391         0.0004199577         0.0005367005
H         -0.0011592983        -0.0001385212        -0.0003703152
H          0.0007661442        -0.0002971781        -0.0003391688
H          0.0009731355         0.0000181593         0.0001542788
           6
AU Step:         15 Time:      310.0559453827
C         -0.0012240736         0.0001594352         0.0000905782
N          0.0010504902        -0.0001348409        -0.0000747531
H         -0.0009331985         0.0003013865         0.0003590862
H         -0.0010314417        -0.0000443008        -0.0002047880
H          0.0007528422        -0.0002335960        -0.0002402268
H          0.0009096078        -0.0000412363         0.0000518131
           6
AU Step:         16 Time:      330.7263417416
C         -0.0012134758         0.0001582232         0.0000900618
N          0.0010331634        -0.0001325035        -0.0000734000
H         -0.0008579622         0.0001786576         0.0001755773
H         -0.0008970354         0.0000523174        -0.0000345373
H          0.0007338319        -0.0001667219        -0.0001367976
H          0.0008407342        -0.0001005626        -0.0000511588
           6
AU Step:         17 Time:      351.3967381004
C         -0.0011960364         0.0001561745         0.0000891046
N          0.0010102344        -0.0001296304        -0.0000719503
H         -0.0007831380         0.0000607926        -0.0000002498
H         -0.0007655710         0.0001441465         0.0001278291
H          0.0007125642        -0.0001025766        -0.0000379248
H          0.0007736157        -0.0001546171        -0.0001454609
           6
AU Step:         18 Time:      372.0671344593
C         -0.0011717604         0.0001532876         0.0000877060
N          0.0009819891        -0.0001262761        -0.0000704561
H         -0.0007134447        -0.0000438231        -0.0001557391
H         -0.0006456641         0.0002244603         0.0002705469
H          0.0006921498        -0.0000467711         0.0000479646
H          0.0007145675        -0.0001987026        -0.0002228226
           6
AU Step:         19 Time:      392.7375308181
C         -0.0011406627         0.0001495627         0.0000858640
N          0.0009487197        -0.0001224768        -0.0000689400
H         -0.0006528917        -0.0001277329        -0.0002796064
H         -0.0005448011         0.0002872343         0.0003831098
H          0.0006751383        -0.0000040812         0.0001137007
H          0.0006686550        -0.0002289922        -0.0002765163
           6
AU Step:         20 Time:      413.4079271770
C         -0.0011028257         0.0001450089         0.0000835799
N          0.0009107862        -0.0001182562        -0.0000673964
H         -0.0006046271        -0.0001847878        -0.0003625131
H         -0.0004690089         0.0003274645         0.0004568182
H          0.0006633179         0.0000219660         0.0001539924
H          0.0006392492        -0.0002428887        -0.0003019814
           6
AU Step:         21 Time:      434.0783235358
C         -0.0010584684         0.0001396508         0.0000808616
N          0.0008686707        -0.0001136306        -0.0000657925
H         -0.0005707404        -0.0002106426        -0.0003978295
H         -0.0004224185         0.0003415888         0.0004855046
H          0.0006575426         0.0000294692         0.0001659972
H          0.0006276337        -0.0002393480        -0.0002973868
           6
AU Step:         22 Time:      454.7487198947
C         -0.0010080230         0.0001335370         0.0000777278
N          0.0008230172        -0.0001086158        -0.0000640730
H         -0.0005520373        -0.0002033330        -0.0003825226
H         -0.0004067581         0.0003279823         0.0004663862
H          0.0006576100         0.0000184411         0.0001497560
H          0.0006327459        -0.0002191025        -0.0002640156
           6
AU Step:         23 Time:      475.4191162535
C         -0.0009522020         0.0001267497         0.0000742113
N          0.0007746460        -0.0001032342        -0.0000621698
H         -0.0005478441        -0.0001638177        -0.0003179854
H         -0.0004208912         0.0002874281         0.0004008713
H          0.0006622304        -0.0000090706         0.0001083736
H          0.0006511608        -0.0001846992        -0.0002063264
           6
AU Step:         24 Time:      496.0895126123
C         -0.0008920353         0.0001194100         0.0000703614
N          0.0007245320        -0.0000975225        -0.0000600164
H         -0.0005559246        -0.0000963009        -0.0002105401
H         -0.0004605787         0.0002234038         0.0002950442
H          0.0006691270        -0.0000491142         0.0000478201
H          0.0006774119        -0.0001402809        -0.0001315639
           6
AU Step:         25 Time:      516.7599089712
C         -0.0008288547         0.0001116750         0.0000662447
N          0.0006737445        -0.0000915378        -0.0000575652
H         -0.0005725984        -0.0000081295        -0.0000712926
H         -0.0005186525         0.0001420074         0.0001595225
H          0.0006752896        -0.0000962604        -0.0000237097
H          0.0007046711        -0.0000910918        -0.0000488874
           6
AU Step:         26 Time:      537.4303053300
C         -0.0007642101         0.0001037276         0.0000619432
N          0.0006233563        -0.0000853595        -0.0000548033
H         -0.0005931085         0.0000908717         0.0000848676
H         -0.0005857157         0.0000514051         0.0000084902
H          0.0006773656        -0.0001442927        -0.0000968359
H          0.0007257020        -0.0000427711         0.0000318720
           6
AU Step:         27 Time:      558.1007016889
C         -0.0006997260         0.0000957627         0.0000575482
N          0.0005743395        -0.0000790856        -0.0000517599
H         -0.0006122174         0.0001896005         0.0002410860
H         -0.0006513234        -0.0000391760        -0.0001420500
H          0.0006721270        -0.0001870512        -0.0001622595
H          0.0007339053        -0.0000005712         0.0001015850
           6
AU Step:         28 Time:      578.7710980477
C         -0.0006369260         0.0000879672         0.0000531527
N          0.0005274708        -0.0000728230        -0.0000485051
H         -0.0006249184         0.0002771894         0.0003808443
H         -0.0007054189        -0.0001207169        -0.0002764720
H          0.0006569248        -0.0002192617        -0.0002120038
H          0.0007242313         0.0000313313         0.0001530330
           6
AU Step:         29 Time:      599.4414944066
C         -0.0005770680         0.0000805009         0.0000488415
N          0.0004832670        -0.0000666745        -0.0000451379
H         -0.0006270972         0.0003444671         0.0004901888
H         -0.0007396832        -0.0001856327        -0.0003816413
H          0.0006300386        -0.0002371845        -0.0002403852
H          0.0006937793         0.0000502971         0.0001817170
           6
AU Step:         30 Time:      620.1118907654
C         -0.0005210309         0.0000734832         0.0000446829
N          0.0004419598        -0.0000607259        -0.0000417698
H         -0.0006159919         0.0003850260         0.0005593613
H         -0.0007484812        -0.0002286608        -0.0004484440
H          0.0005908654        -0.0002389780        -0.0002445516
H          0.0006420099         0.0000554000         0.0001861652
           6
AU Step:         31 Time:      640.7822871243
C         -0.0004692699         0.0000669850         0.0000407226
N          0.0004035084        -0.0000550354        -0.0000385078
H         -0.0005903787         0.0003957052         0.0005835478
H         -0.0007292504        -0.0002472589        -0.0004724652
H          0.0005399374        -0.0002247569        -0.0002245647
H          0.0005706036         0.0000473407         0.0001677793
           6
AU Step:         32 Time:      661.4526834831
C         -0.0004218395         0.0000610288         0.0000369820
N          0.0003676401        -0.0000496290        -0.0000354416
H         -0.0005504993         0.0003765054         0.0005627594
H         -0.0006823640        -0.0002415248        -0.0004538435
H          0.0004787964        -0.0001963968        -0.0001831007
H          0.0004830711         0.0000281758         0.0001303578
           6
AU Step:         33 Time:      682.1230798420
C         -0.0003784604         0.0000555963         0.0000334584
N          0.0003339072        -0.0000444999        -0.0000326366
H         -0.0004978108         0.0003300990         0.0005010964
H         -0.0006106315        -0.0002137798        -0.0003965463
H          0.0004097783        -0.0001571748        -0.0001249085
H          0.0003842426         0.0000009519         0.0000794535
           6
AU Step:         34 Time:      702.7934762008
C         -0.0003386067         0.0000506378         0.0000301295
N          0.0003017474        -0.0000396124        -0.0000301314
H         -0.0004346588         0.0002611486         0.0004057175
H         -0.0005186435        -0.0001679981        -0.0003073802
H          0.0003357566        -0.0001113366        -0.0000561570
H          0.0002797284        -0.0000306839         0.0000216900
           6
AU Step:         35 Time:      723.4638725597
C         -0.0003015918         0.0000460832         0.0000269572
N          0.0002705441        -0.0000349070        -0.0000279391
H         -0.0003639536         0.0001756132         0.0002857840
H         -0.0004121259        -0.0001092332        -0.0001949918
H          0.0002598813        -0.0000636518         0.0000162334
H          0.0001754071        -0.0000628581        -0.0000358929
           6
AU Step:         36 Time:      744.1342689185
C         -0.0002666414         0.0000418510         0.0000238930
N          0.0002396810        -0.0000303068        -0.0000260501
H         -0.0002888989         0.0000801490         0.0001515519
H         -0.0002973920        -0.0000431224        -0.0000690112
H          0.0001853306        -0.0000189896         0.0000852280
H          0.0000769582        -0.0000918154        -0.0000864414
           6
AU Step:         37 Time:      764.8046652774
C         -0.0002329507         0.0000378557         0.0000208816
N          0.0002085934        -0.0000257233        -0.0000244348
H         -0.0002127817        -0.0000183637         0.0000141928
H         -0.0001809219         0.0000244995         0.0000606218
H          0.0001150794         0.0000181699         0.0001442755
H         -0.0000105683        -0.0001142390        -0.0001238473
           6
AU Step:         38 Time:      785.4750616362
C         -0.0001997286         0.0000340158         0.0000178671
N          0.0001768159        -0.0000210623        -0.0000230466
H         -0.0001388075        -0.0001132076        -0.0001152727
H         -0.0000690436         0.0000879009         0.0001841782
H          0.0000516843         0.0000440268         0.0001878632
H         -0.0000831505        -0.0001275505        -0.0001432710
           6
AU Step:         39 Time:      806.1454579951
C         -0.0001662352         0.0000302606         0.0000147978
N          0.0001440253        -0.0000162290        -0.0000218244
H         -0.0000699619        -0.0001981571        -0.0002275134
H          0.0000323345         0.0001417062         0.0002925812
H         -0.0000029160         0.0000556349         0.0002120316
H         -0.0001381553        -0.0001301839        -0.0001416191
           6
AU Step:         40 Time:      826.8158543539
C         -0.0001318170         0.0000265329         0.0000116268
N          0.0001100755        -0.0000111346        -0.0000206974
H         -0.0000088874        -0.0002677682        -0.0003149366
H          0.0001179902         0.0001811479         0.0003778436
H         -0.0000475751         0.0000512708         0.0002148248
H         -0.0001746235        -0.0001218049        -0.0001179336
           6
AU Step:         41 Time:      847.4862507128
C         -0.0000959456         0.0000227920         0.0000083090
N          0.0000750205        -0.0000057046        -0.0000195926
H          0.0000422489        -0.0003176770        -0.0003711587
H          0.0001836927         0.0002023489         0.0004335559
H         -0.0000820655         0.0000308246         0.0001966137
H         -0.0001934247        -0.0001034339        -0.0000736176
           6
AU Step:         42 Time:      868.1566470716
C         -0.0000582617         0.0000190158         0.0000048010
N          0.0000391147         0.0000001139        -0.0000184442
H          0.0000819135        -0.0003449493        -0.0003909096
H          0.0002265488         0.0002026422         0.0004554361
H         -0.0001071206        -0.0000040112         0.0001602016
H         -0.0001972144        -0.0000774232        -0.0000124079
           6
AU Step:         43 Time:      888.8270434305
C         -0.0000186214         0.0000152060         0.0000010650
N          0.0000027882         0.0000063453        -0.0000172047
H          0.0001093888        -0.0003484723        -0.0003715939
H          0.0002453620         0.0001809007         0.0004418917
H         -0.0001243590        -0.0000500157         0.0001106278
H         -0.0001901497        -0.0000472514         0.0000599705
           6
AU Step:         44 Time:      909.4974397893
C          0.0000228646         0.0000113931        -0.0000029253
N         -0.0000334049         0.0000129819        -0.0000158556
H          0.0001249322        -0.0003292844        -0.0003149692
H          0.0002409335         0.0001378147         0.0003944815
H         -0.0001360830        -0.0001029704         0.0000546439
H         -0.0001773648        -0.0000171345         0.0001364728
           6
AU Step:         45 Time:      930.1678361482
C          0.0000658134         0.0000076347        -0.0000071837
N         -0.0000688585         0.0000199842        -0.0000144145
H          0.0001298442        -0.0002906887        -0.0002258020
H          0.0002162022         0.0000760243         0.0003181127
H         -0.0001449711        -0.0001579333        -0.0000000923
H         -0.0001642805         0.0000084987         0.0002096377
           6
AU Step:         46 Time:      950.8382325070
C          0.0001095854         0.0000040125        -0.0000117087
N         -0.0001029943         0.0000272862        -0.0000129355
H          0.0001264210        -0.0002381071        -0.0001115809
H          0.0001761215         0.0000000122         0.0002208195
H         -0.0001537080        -0.0002098672        -0.0000459916
H         -0.0001558727         0.0000255701         0.0002725682
           6
AU Step:         47 Time:      971.5086288658
C          0.0001533376         0.0000006274        -0.0000164772
N         -0.0001353336         0.0000348076        -0.0000115024
H          0.0001177616        -0.0001786188         0.0000170616
H          0.0001272124        -0.0000842963         0.0001130333
H         -0.0001646214        -0.0002544706        -0.0000764994
H         -0.0001560385         0.0000308500         0.0003198062
           6
AU Step:         48 Time:      992.1790252247
C          0.0001961175        -0.0000024114        -0.0000214448
N         -0.0001655500         0.0000424663        -0.0000102172
H          0.0001074204        -0.0001201677         0.0001480362
H          0.0000768219        -0.0001702054         0.0000063920
H         -0.0001793969        -0.0002886236        -0.0000868676
H         -0.0001671770         0.0000222966         0.0003479400
           6
AU Step:         49 Time:     1012.8494215835
C          0.0002369767        -0.0000049985        -0.0000265484
N         -0.0001934933         0.0000501925        -0.0000091856
H          0.0000989672        -0.0000705840         0.0002692718
H          0.0000322110        -0.0002510778        -0.0000877049
H         -0.0001989133        -0.0003107133        -0.0000746141
H         -0.0001900247        -0.0000007997         0.0003558746
           6
AU Step:         50 Time:     1033.5198179424
C          0.0002750856        -0.0000070443        -0.0000317132
N         -0.0002191880         0.0000579388        -0.0000085055
H          0.0000955425        -0.0000366244         0.0003702042
H         -0.0000003411        -0.0003211536        -0.0001595004
H         -0.0002232089        -0.0003207283        -0.0000396347
H         -0.0002237327        -0.0000378641         0.0003447755
           6
AU Step:         51 Time:     1054.1902143012
C          0.0003098221        -0.0000084851        -0.0000368615
N         -0.0002428101         0.0000656865        -0.0000082575
H          0.0000995023        -0.0000232244         0.0004434883
H         -0.0000162317        -0.0003761875        -0.0002019512
H         -0.0002515603        -0.0003200618         0.0000159920
H         -0.0002661229        -0.0000872300         0.0003177571
           6
AU Step:         52 Time:     1074.8606106601
C          0.0003408215        -0.0000092858        -0.0000419196
N         -0.0002646514         0.0000734484        -0.0000085012
H          0.0001122180        -0.0000331123         0.0004840525
H         -0.0000129154        -0.0004138007        -0.0002112908
H         -0.0002826343        -0.0003115219         0.0000884091
H         -0.0003140432        -0.0001464199         0.0002794186
           6
AU Step:         53 Time:     1095.5310070189
C          0.0003679854        -0.0000094418        -0.0000468285
N         -0.0002850769         0.0000812670        -0.0000092744
H          0.0001340203        -0.0000667389         0.0004902804
H          0.0000100479        -0.0004335311        -0.0001870673
H         -0.0003146841        -0.0002988249         0.0001725136
H         -0.0003637631        -0.0002124635         0.0002353072
           6
AU Step:         54 Time:     1116.2014033778
C          0.0003914569        -0.0000089771        -0.0000515515
N         -0.0003044820         0.0000892108        -0.0000105952
H          0.0001642784        -0.0001224993         0.0004648011
H          0.0000512099        -0.0004366417        -0.0001317657
H         -0.0003457569        -0.0002860404         0.0002625299
H         -0.0004113648        -0.0002822155         0.0001913724
           6
AU Step:         55 Time:     1136.8717997366
C          0.0004115738        -0.0000079355        -0.0000560734
N         -0.0003232512         0.0000973692        -0.0000124646
H          0.0002015824        -0.0001971739         0.0004123055
H          0.0001076052        -0.0004257851        -0.0000501898
H         -0.0003738941        -0.0002774717         0.0003525726
H         -0.0004531126        -0.0003526579         0.0001534387
           6
AU Step:         56 Time:     1157.5421960955
C          0.0004288137        -0.0000063731        -0.0000603992
N         -0.0003417183         0.0001058458        -0.0000148690
H          0.0002439507        -0.0002864114         0.0003393497
H          0.0001751812        -0.0004046152         0.0000512380
H         -0.0003973235        -0.0002772054         0.0004371792
H         -0.0004857961        -0.0004211719         0.0001267062
           6
AU Step:         57 Time:     1178.2125924543
C          0.0004437412        -0.0000043501        -0.0000645519
N         -0.0003601302         0.0001147499        -0.0000177831
H          0.0002890344        -0.0003851938         0.0002536675
H          0.0002492107        -0.0003774142         0.0001651427
H         -0.0004146376        -0.0002887552         0.0005118014
H         -0.0005070393        -0.0004857732         0.0001152906
           6
AU Step:         58 Time:     1198.8829888132
C          0.0004569605        -0.0000019242        -0.0000685692
N         -0.0003786151         0.0001241851        -0.0000211716
H          0.0003342998        -0.0004882452         0.0001635361
H          0.0003246557        -0.0003487635         0.0002837764
H         -0.0004249578        -0.0003147262         0.0005732366
H         -0.0005155680        -0.0005452960         0.0001218179
           6
AU Step:         59 Time:     1219.5533851720
C          0.0004690736         0.0000008543        -0.0000725003
N         -0.0003971566         0.0001342358        -0.0000249915
H          0.0003771871        -0.0005903775         0.0000772721
H          0.0003964811        -0.0003232605         0.0003995105
H         -0.0004280692        -0.0003565147         0.0006199646
H         -0.0005114030        -0.0005994999         0.0001471155
           6
AU Step:         60 Time:     1240.2237815309
C          0.0004806433         0.0000039462        -0.0000764028
N         -0.0004155798         0.0001449506        -0.0000291953
H          0.0004152539        -0.0006867882         0.0000027904
H          0.0004599370        -0.0003052631         0.0005052658
H         -0.0004245127        -0.0004140767         0.0006523432
H         -0.0004959446        -0.0006490755         0.0001900551
           6
AU Step:         61 Time:     1260.8941778897
C          0.0004921566         0.0000073260        -0.0000803383
N         -0.0004335531         0.0001563264        -0.0000337337
H          0.0004463159        -0.0007733312        -0.0000528847
H          0.0005108325        -0.0002986391         0.0005949111
H         -0.0004156066        -0.0004858325         0.0006726016
H         -0.0004719110        -0.0006955256         0.0002476004
           6
AU Step:         62 Time:     1281.5645742486
C          0.0005039871         0.0000109817        -0.0000843669
N         -0.0004506082         0.0001682945        -0.0000385597
H          0.0004685952        -0.0008467731        -0.0000839615
H          0.0005458186        -0.0003065023         0.0006636548
H         -0.0004033793        -0.0005687111         0.0006845939
H         -0.0004431039        -0.0007409198         0.0003151010
           6
AU Step:         63 Time:     1302.2349706074
C          0.0005163568         0.0000149117        -0.0000885388
N         -0.0004661805         0.0001807138        -0.0000436301
H          0.0004808777        -0.0009050348        -0.0000863154
H          0.0005626798        -0.0003309320         0.0007084218
H         -0.0003904025        -0.0006583982         0.0006933078
H         -0.0004140135        -0.0007875472         0.0003868192
           6
AU Step:         64 Time:     1322.9053669663
C          0.0005293003         0.0000191198        -0.0000928832
N         -0.0004796634         0.0001933734        -0.0000489065
H          0.0004826696        -0.0009473938        -0.0000582493
H          0.0005606051        -0.0003726987         0.0007281765
H         -0.0003795373        -0.0007498249         0.0007041801
H         -0.0003893134        -0.0008375256         0.0004566241
           6
AU Step:         65 Time:     1343.5757633251
C          0.0005426379         0.0000236058        -0.0000973957
N         -0.0004904697         0.0002060065        -0.0000543540
H          0.0004743227        -0.0009745921        -0.0000009008
H          0.0005403920        -0.0004310399         0.0007241215
H         -0.0003736304        -0.0008377346         0.0007223354