 Entering Gaussian System, Link 0=g09
 Input=gaussian.gjf
 Output=gaussian.log
 Initial command:
 /opt/g09_D01_em64t/g09/l1.exe "/tmp/Gau-20947.inp" -scrdir="/tmp/"
 Entering Link 1 = /opt/g09_D01_em64t/g09/l1.exe PID=     20948.
  
 Copyright (c) 1988,1990,1992,1993,1995,1998,2003,2009,2013,
            Gaussian, Inc.  All Rights Reserved.
  
 This is part of the Gaussian(R) 09 program.  It is based on
 the Gaussian(R) 03 system (copyright 2003, Gaussian, Inc.),
 the Gaussian(R) 98 system (copyright 1998, Gaussian, Inc.),
 the Gaussian(R) 94 system (copyright 1995, Gaussian, Inc.),
 the Gaussian 92(TM) system (copyright 1992, Gaussian, Inc.),
 the Gaussian 90(TM) system (copyright 1990, Gaussian, Inc.),
 the Gaussian 88(TM) system (copyright 1988, Gaussian, Inc.),
 the Gaussian 86(TM) system (copyright 1986, Carnegie Mellon
 University), and the Gaussian 82(TM) system (copyright 1983,
 Carnegie Mellon University). Gaussian is a federally registered
 trademark of Gaussian, Inc.
  
 This software contains proprietary and confidential information,
 including trade secrets, belonging to Gaussian, Inc.
  
 This software is provided under written license and may be
 used, copied, transmitted, or stored only in accord with that
 written license.
  
 The following legend is applicable only to US Government
 contracts under FAR:
  
                    RESTRICTED RIGHTS LEGEND
  
 Use, reproduction and disclosure by the US Government is
 subject to restrictions as set forth in subparagraphs (a)
 and (c) of the Commercial Computer Software - Restricted
 Rights clause in FAR 52.227-19.
  
 Gaussian, Inc.
 340 Quinnipiac St., Bldg. 40, Wallingford CT 06492
  
  
 ---------------------------------------------------------------
 Warning -- This program may not be used in any manner that
 competes with the business of Gaussian, Inc. or will provide
 assistance to any competitor of Gaussian, Inc.  The licensee
 of this program is prohibited from giving any competitor of
 Gaussian, Inc. access to this program.  By using this program,
 the user acknowledges that Gaussian, Inc. is engaged in the
 business of creating and licensing software in the field of
 computational chemistry and represents and warrants to the
 licensee that it is not a competitor of Gaussian, Inc. and that
 it will not use this program in any manner prohibited above.
 ---------------------------------------------------------------
  

 Cite this work as:
 Gaussian 09, Revision D.01,
 M. J. Frisch, G. W. Trucks, H. B. Schlegel, G. E. Scuseria, 
 M. A. Robb, J. R. Cheeseman, G. Scalmani, V. Barone, B. Mennucci, 
 G. A. Petersson, H. Nakatsuji, M. Caricato, X. Li, H. P. Hratchian, 
 A. F. Izmaylov, J. Bloino, G. Zheng, J. L. Sonnenberg, M. Hada, 
 M. Ehara, K. Toyota, R. Fukuda, J. Hasegawa, M. Ishida, T. Nakajima, 
 Y. Honda, O. Kitao, H. Nakai, T. Vreven, J. A. Montgomery, Jr., 
 J. E. Peralta, F. Ogliaro, M. Bearpark, J. J. Heyd, E. Brothers, 
 K. N. Kudin, V. N. Staroverov, T. Keith, R. Kobayashi, J. Normand, 
 K. Raghavachari, A. Rendell, J. C. Burant, S. S. Iyengar, J. Tomasi, 
 M. Cossi, N. Rega, J. M. Millam, M. Klene, J. E. Knox, J. B. Cross, 
 V. Bakken, C. Adamo, J. Jaramillo, R. Gomperts, R. E. Stratmann, 
 O. Yazyev, A. J. Austin, R. Cammi, C. Pomelli, J. W. Ochterski, 
 R. L. Martin, K. Morokuma, V. G. Zakrzewski, G. A. Voth, 
 P. Salvador, J. J. Dannenberg, S. Dapprich, A. D. Daniels, 
 O. Farkas, J. B. Foresman, J. V. Ortiz, J. Cioslowski, 
 and D. J. Fox, Gaussian, Inc., Wallingford CT, 2013.
 
 ******************************************
 Gaussian 09:  EM64L-G09RevD.01 24-Apr-2013
                30-Apr-2014 
 ******************************************
 %chk=gaussian.chk
 %mem=1GB
 %nproc=2
 Will use up to    2 processors via shared memory.
 %nproclinda=1
 Will use up to    1 processors via Linda.
 ----------------------------------------------------------------------
 # b3lyp/6-31g* scf=(tight,maxcycle=10000) iop(9/40=20) nosymm pop=full
 ----------------------------------------------------------------------
 1/38=1/1;
 2/12=2,15=1,17=6,18=5,40=1/2;
 3/5=1,6=6,7=1,11=2,16=1,25=1,30=1,74=-5/1,2,3;
 4//1;
 5/5=2,7=10000,32=2,38=5/2;
 6/7=3,28=1/1;
 99/5=1,9=1/99;
 -------
 [0] [0]
 -------
 Symbolic Z-matrix:
 Charge =  1 Multiplicity = 1
 c                    -2.42966   0.38119   0.21301 
 n                    -1.17465   0.15599   0.07256 
 h                    -2.80566   0.86224   1.11522 
 h                    -3.10093   0.08926  -0.59224 
 h                    -0.80429  -0.33063  -0.74909 
 h                    -0.49519   0.46098   0.77215 
 
                          Input orientation:                          
 ---------------------------------------------------------------------
 Center     Atomic      Atomic             Coordinates (Angstroms)
 Number     Number       Type             X           Y           Z
 ---------------------------------------------------------------------
      1          6           0       -2.429657    0.381185    0.213006
      2          7           0       -1.174652    0.155985    0.072559
      3          1           0       -2.805659    0.862239    1.115220
      4          1           0       -3.100931    0.089263   -0.592242
      5          1           0       -0.804291   -0.330627   -0.749091
      6          1           0       -0.495187    0.460980    0.772155
 ---------------------------------------------------------------------
                    Distance matrix (angstroms):
                    1          2          3          4          5
     1  C    0.000000
     2  N    1.282762   0.000000
     3  H    1.089394   2.060611   0.000000
     4  H    1.088233   2.038863   1.897394   0.000000
     5  H    2.018445   1.024240   2.983966   2.339970   0.000000
     6  H    2.015239   1.021826   2.370017   2.964735   1.742520
                    6
     6  H    0.000000
 Symmetry turned off by external request.
 Stoichiometry    CH4N(1+)
 Framework group  C1[X(CH4N)]
 Deg. of freedom    12
 Full point group                 C1      NOp   1
 Rotational constants (GHZ):    151.1380816     31.1471375     25.8320888
 Standard basis: 6-31G(d) (6D, 7F)
    38 basis functions,    72 primitive gaussians,    38 cartesian basis functions
     8 alpha electrons        8 beta electrons
       nuclear repulsion energy        38.5509400910 Hartrees.
 NAtoms=    6 NActive=    6 NUniq=    6 SFac= 1.00D+00 NAtFMM=   60 NAOKFM=F Big=F
 Integral buffers will be    131072 words long.
 Raffenetti 2 integral format.
 Two-electron integral symmetry is turned off.
 One-electron integrals computed using PRISM.
 NBasis=    38 RedAO= T EigKep=  8.44D-03  NBF=    38
 NBsUse=    38 1.00D-06 EigRej= -1.00D+00 NBFU=    38
 ExpMin= 1.61D-01 ExpMax= 4.17D+03 ExpMxC= 6.27D+02 IAcc=1 IRadAn=         1 AccDes= 0.00D+00
 Harris functional with IExCor=  402 and IRadAn=       1 diagonalized for initial guess.
 HarFok:  IExCor=  402 AccDes= 0.00D+00 IRadAn=         1 IDoV= 1 UseB2=F ITyADJ=14
 ICtDFT=  3500011 ScaDFX=  1.000000  1.000000  1.000000  1.000000
 FoFCou: FMM=F IPFlag=           0 FMFlag=      100000 FMFlg1=           0
         NFxFlg=           0 DoJE=T BraDBF=F KetDBF=T FulRan=T
         wScrn=  0.000000 ICntrl=     500 IOpCl=  0 I1Cent=   200000004 NGrid=           0
         NMat0=    1 NMatS0=      1 NMatT0=    0 NMatD0=    1 NMtDS0=    0 NMtDT0=    0
 Symmetry not used in FoFCou.
 Keep R1 ints in memory in canonical form, NReq=101191747.
 Requested convergence on RMS density matrix=1.00D-08 within**** cycles.
 Requested convergence on MAX density matrix=1.00D-06.
 Requested convergence on             energy=1.00D-06.
 No special actions if energy rises.
 Integral accuracy reduced to 1.0D-05 until final iterations.
 Initial convergence to 1.0D-05 achieved.  Increase integral accuracy.
 SCF Done:  E(RB3LYP) =  -94.9738114598     A.U. after   11 cycles
            NFock= 11  Conv=0.50D-08     -V/T= 2.0106

 **********************************************************************

            Population analysis using the SCF density.

 **********************************************************************

 Alpha  occ. eigenvalues --  -14.69032 -10.54795  -1.24593  -0.95196  -0.84814
 Alpha  occ. eigenvalues --   -0.78762  -0.68397  -0.65142
 Alpha virt. eigenvalues --   -0.32033  -0.16863  -0.13466  -0.10248  -0.01492
 Alpha virt. eigenvalues --    0.03694   0.27572   0.27714   0.32071   0.38308
 Alpha virt. eigenvalues --    0.44181   0.45015   0.55781   0.61703   0.62362
 Alpha virt. eigenvalues --    0.66911   0.93810   1.08335   1.14629   1.18654
 Alpha virt. eigenvalues --    1.50221   1.58877   1.72817   1.87130   2.04848
 Alpha virt. eigenvalues --    2.10402   2.38226   2.42219   3.46123   3.80822
     Molecular Orbital Coefficients:
                           1         2         3         4         5
                           O         O         O         O         O
     Eigenvalues --   -14.69032 -10.54795  -1.24593  -0.95196  -0.84814
   1 1   C  1S          0.00007   0.99270  -0.10989  -0.16282  -0.00127
   2        2S          0.00033   0.04867   0.22095   0.34666   0.00280
   3        2PX         0.00027   0.00100   0.14887  -0.01468   0.04227
   4        2PY        -0.00005  -0.00018  -0.02687   0.00208   0.10698
   5        2PZ        -0.00003  -0.00011  -0.01729  -0.00053   0.22220
   6        3S         -0.00081  -0.00939   0.08457   0.28429   0.00302
   7        3PX        -0.00038   0.00035  -0.00839  -0.02243   0.01209
   8        3PY         0.00007  -0.00006   0.00184   0.00400   0.03172
   9        3PZ         0.00004  -0.00001   0.00152   0.00174   0.06632
  10        4XX        -0.00006  -0.00890   0.01631  -0.00376   0.00331
  11        4YY         0.00000  -0.00985  -0.01323  -0.01238  -0.00148
  12        4ZZ         0.00000  -0.00961  -0.00898   0.00392  -0.00198
  13        4XY         0.00001  -0.00019  -0.00596  -0.00081   0.00424
  14        4XZ         0.00001  -0.00007  -0.00277   0.00266   0.00784
  15        4YZ         0.00000   0.00020   0.00398   0.01122  -0.00202
  16 2   N  1S          0.99261  -0.00031  -0.19418   0.07521   0.00024
  17        2S          0.03480  -0.00019   0.41401  -0.16782  -0.00040
  18        2PX        -0.00017   0.00040  -0.07474  -0.32112   0.08125
  19        2PY         0.00003  -0.00007   0.01398   0.05572   0.20814
  20        2PZ         0.00002  -0.00005   0.00837   0.03411   0.40603
  21        3S          0.00482   0.00136   0.38634  -0.23139  -0.00090
  22        3PX        -0.00006   0.00031  -0.01618  -0.13245   0.04262
  23        3PY         0.00001  -0.00005   0.00287   0.02273   0.10886
  24        3PZ         0.00001  -0.00004   0.00110   0.01394   0.21193
  25        4XX        -0.00834  -0.00068   0.00860   0.00768   0.00305
  26        4YY        -0.00846  -0.00008  -0.01024   0.00072  -0.00121
  27        4ZZ        -0.00842  -0.00016   0.00317  -0.01290  -0.00183
  28        4XY        -0.00002   0.00012  -0.00254  -0.00304   0.00436
  29        4XZ         0.00000   0.00006   0.00139  -0.00475   0.00831
  30        4YZ         0.00003  -0.00007   0.01209  -0.01109  -0.00195
  31 3   H  1S         -0.00001  -0.00036   0.03401   0.12169   0.09070
  32        2S          0.00001   0.00209  -0.00312   0.02051   0.03363
  33 4   H  1S         -0.00002  -0.00035   0.03520   0.12244  -0.09000
  34        2S          0.00001   0.00211  -0.00201   0.02044  -0.03412
  35 5   H  1S          0.00031   0.00001   0.09733  -0.13432  -0.19443
  36        2S         -0.00058  -0.00003  -0.00978  -0.02023  -0.04936
  37 6   H  1S          0.00031   0.00001   0.09794  -0.13599   0.19352
  38        2S         -0.00058  -0.00002  -0.00953  -0.02029   0.04867
                           6         7         8         9        10
                           O         O         O         V         V
     Eigenvalues --    -0.78762  -0.68397  -0.65142  -0.32033  -0.16863
   1 1   C  1S          0.05244   0.00008   0.00035   0.00070  -0.01817
   2        2S         -0.10103   0.00012  -0.00074  -0.00168   0.05935
   3        2PX         0.42427   0.07211   0.05039   0.06242  -0.14861
   4        2PY        -0.07891   0.13267   0.32225   0.48644   0.02118
   5        2PZ        -0.04892   0.40495  -0.08987  -0.23192   0.00399
   6        3S         -0.19966  -0.00131  -0.00150  -0.00307   0.25476
   7        3PX         0.09767   0.03428   0.02439   0.06675  -0.48685
   8        3PY        -0.01876   0.06900   0.15600   0.51261   0.07500
   9        3PZ        -0.01202   0.19989  -0.03948  -0.24085   0.02534
  10        4XX         0.01833  -0.00895   0.00380  -0.00336   0.01485
  11        4YY        -0.00430   0.00502  -0.00694   0.00538  -0.00096
  12        4ZZ        -0.02420   0.00372   0.00310  -0.00187  -0.01093
  13        4XY        -0.00601  -0.01547   0.02169  -0.01699  -0.00494
  14        4XZ        -0.00712  -0.02531  -0.01735   0.01040  -0.00606
  15        4YZ        -0.01256   0.00603   0.00044   0.00008  -0.00705
  16 2   N  1S         -0.01888  -0.00086   0.00014  -0.00048  -0.11876
  17        2S          0.04633   0.00218  -0.00033   0.00129   0.22702
  18        2PX        -0.37768  -0.05654   0.04498  -0.04125   0.17354
  19        2PY         0.06752  -0.17341   0.44275  -0.35179  -0.03565
  20        2PZ         0.04601  -0.17610  -0.27873   0.18983  -0.03100
  21        3S          0.03795   0.00395  -0.00047   0.00225   1.64012
  22        3PX        -0.16875  -0.03579   0.03006  -0.04643   0.28299
  23        3PY         0.03044  -0.11160   0.29216  -0.40101  -0.05704
  24        3PZ         0.02140  -0.11674  -0.18476   0.21639  -0.04868
  25        4XX        -0.00204  -0.00852  -0.00447  -0.00594  -0.01384
  26        4YY        -0.00252   0.00320   0.00503   0.00807  -0.01902
  27        4ZZ        -0.01051   0.00509  -0.00062  -0.00221  -0.02739
  28        4XY        -0.00083  -0.00970  -0.01542  -0.02568  -0.00108
  29        4XZ        -0.00211  -0.02601   0.00317   0.01194  -0.00145
  30        4YZ        -0.00649   0.00573   0.00114   0.00091  -0.00648
  31 3   H  1S         -0.16431   0.22471   0.03352  -0.00426  -0.01258
  32        2S         -0.07770   0.12303   0.01989  -0.00873  -0.34012
  33 4   H  1S         -0.15681  -0.23042  -0.03485   0.00648  -0.02277
  34        2S         -0.07486  -0.12691  -0.02092   0.01177  -0.40403
  35 5   H  1S         -0.09790   0.14049   0.02191   0.00619  -0.13473
  36        2S         -0.04554   0.07516   0.01314   0.01023  -1.02083
  37 6   H  1S         -0.09465  -0.14284  -0.02207  -0.00789  -0.12313
  38        2S         -0.04449  -0.07690  -0.01365  -0.01314  -0.95684
                          11        12        13        14        15
                           V         V         V         V         V
     Eigenvalues --    -0.13466  -0.10248  -0.01492   0.03694   0.27572
   1 1   C  1S          0.00393  -0.13606  -0.00149  -0.06588   0.00005
   2        2S         -0.00900   0.27590  -0.00114   0.01291  -0.00343
   3        2PX        -0.03601  -0.15521   0.07327   0.18457  -0.12518
   4        2PY        -0.10293   0.02867   0.16230  -0.04118  -0.87698
   5        2PZ        -0.24047   0.01234   0.37261  -0.03691   0.41888
   6        3S         -0.04695   1.97451   0.04110   2.17334  -0.00648
   7        3PX        -0.05453  -0.33269   0.29282   2.30649   0.13330
   8        3PY        -0.19025   0.06223   0.57006  -0.44174   0.98250
   9        3PZ        -0.46309   0.02441   1.25534  -0.31073  -0.47335
  10        4XX        -0.01048  -0.01044  -0.00140  -0.04906  -0.00798
  11        4YY         0.00475   0.00475   0.00024   0.01379   0.01176
  12        4ZZ         0.00612  -0.00986   0.00085   0.03301  -0.00391
  13        4XY        -0.01469   0.00192   0.00149   0.01475  -0.03757
  14        4XZ        -0.03042  -0.00183   0.00438   0.01227   0.02000
  15        4YZ         0.00787  -0.00958  -0.00042   0.00916   0.00081
  16 2   N  1S          0.00324   0.05670   0.00081   0.06328  -0.00076
  17        2S         -0.00497  -0.11380  -0.00173  -0.06540   0.00176
  18        2PX        -0.07329  -0.00152  -0.03606   0.38637  -0.02309
  19        2PY        -0.16024  -0.00567  -0.13955  -0.06364  -0.21368
  20        2PZ        -0.29584  -0.00780  -0.27054  -0.03531   0.12564
  21        3S         -0.05963  -0.71532  -0.02615  -1.98075   0.00030
  22        3PX        -0.13289   0.13026  -0.11415   1.63809  -0.00973
  23        3PY        -0.30106  -0.03523  -0.39812  -0.27766   0.06008
  24        3PZ        -0.54652  -0.02903  -0.79821  -0.15679  -0.04042
  25        4XX         0.01154   0.01932  -0.00765   0.02101   0.01083
  26        4YY        -0.00406   0.00855   0.00340   0.02535  -0.01805
  27        4ZZ        -0.00544  -0.00212   0.00502   0.00861   0.00693
  28        4XY         0.01499  -0.00322  -0.00941  -0.00038   0.05977
  29        4XZ         0.03282  -0.00389  -0.02310  -0.00343  -0.03038
  30        4YZ        -0.00744  -0.00599   0.00505  -0.01530  -0.00121
  31 3   H  1S          0.09739  -0.12789  -0.05994   0.04010   0.00155
  32        2S          0.75762  -1.25713  -1.45703   0.36572   0.00630
  33 4   H  1S         -0.09042  -0.12770   0.06247   0.04643  -0.00083
  34        2S         -0.68824  -1.26826   1.49495   0.19828  -0.00816
  35 5   H  1S         -0.13950   0.04593  -0.01597  -0.06943   0.00181
  36        2S         -0.97017   0.31013  -0.96183  -0.56150   0.01308
  37 6   H  1S          0.14720   0.04831   0.00884  -0.07003   0.00049
  38        2S          1.04995   0.35944   0.89945  -0.62217  -0.01038
                          16        17        18        19        20
                           V         V         V         V         V
     Eigenvalues --     0.27714   0.32071   0.38308   0.44181   0.45015
   1 1   C  1S         -0.02310  -0.00107  -0.06151  -0.00292   0.06126
   2        2S          0.44203  -0.02480  -0.81449   0.01183  -0.21238
   3        2PX         0.91613  -0.09824   0.09512   0.04485  -0.23007
   4        2PY        -0.17309  -0.24038  -0.00667   0.26148   0.04683
   5        2PZ        -0.08648  -0.49694   0.01073  -0.13233   0.00734
   6        3S          0.43110  -0.01885   1.57808  -0.06155   1.13168
   7        3PX        -0.64973   0.16434  -0.50728  -0.11401   0.73186
   8        3PY         0.12748   0.57783   0.05783  -0.63537  -0.15124
   9        3PZ         0.05620   1.24371  -0.02274   0.33575  -0.03584
  10        4XX        -0.00446   0.03273  -0.10089  -0.01159   0.14413
  11        4YY         0.02664  -0.01780   0.03504   0.01029  -0.04590
  12        4ZZ         0.01292  -0.02318  -0.15020  -0.00178  -0.03268
  13        4XY         0.00582   0.05179   0.01411  -0.02381  -0.04026
  14        4XZ         0.00258   0.11049  -0.02979   0.02259  -0.01973
  15        4YZ        -0.01131  -0.02874  -0.12850  -0.00100   0.01042
  16 2   N  1S          0.05438  -0.00109  -0.01286   0.00268  -0.05637
  17        2S         -0.06395  -0.00511  -0.24314  -0.00717   0.17766
  18        2PX        -0.02942   0.00021   0.20278  -0.07290  -0.46018
  19        2PY         0.00039  -0.00860  -0.04130  -0.82361   0.04087
  20        2PZ         0.00087  -0.07110  -0.02641   0.43977   0.07198
  21        3S         -0.07666   0.06584   0.40311   0.02414  -0.47785
  22        3PX         1.03202  -0.04986  -0.08844   0.06575   1.39706
  23        3PY        -0.18033   0.02436   0.02797   1.14606  -0.18538
  24        3PZ        -0.10899   0.04376   0.03028  -0.59078  -0.18120
  25        4XX         0.17420  -0.03433  -0.05430   0.00718  -0.08254
  26        4YY        -0.04116   0.01328   0.00604  -0.00950   0.08131
  27        4ZZ        -0.06829   0.01975  -0.07241   0.00764  -0.08357
  28        4XY        -0.04830  -0.04546   0.00629   0.01720   0.01729
  29        4XZ        -0.03761  -0.09437  -0.01091  -0.01635  -0.02887
  30        4YZ        -0.01347   0.02359  -0.06253   0.00801  -0.14547
  31 3   H  1S         -0.04117  -0.42452  -0.57744  -0.01733   0.15210
  32        2S         -0.07009  -0.29687  -0.07475   0.01279  -0.10092
  33 4   H  1S         -0.03013   0.38990  -0.59287   0.00525   0.15822
  34        2S         -0.07281   0.29177  -0.14844  -0.00214  -0.06888
  35 5   H  1S         -0.04211   0.40735  -0.22307   0.04886  -0.64521
  36        2S         -0.14904  -0.20763   0.05544  -0.01640   0.05059
  37 6   H  1S         -0.05337  -0.39717  -0.20164   0.01489  -0.66406
  38        2S         -0.13730   0.21720   0.02463   0.00944   0.05156
                          21        22        23        24        25
                           V         V         V         V         V
     Eigenvalues --     0.55781   0.61703   0.62362   0.66911   0.93810
   1 1   C  1S         -0.00094  -0.00070   0.01320   0.01222   0.01024
   2        2S          0.00588   0.09060  -0.62659  -1.30667   0.67070
   3        2PX        -0.14081   0.05472  -0.07469   0.50578  -0.00717
   4        2PY        -0.36705   0.14301   0.02734  -0.09029  -0.00345
   5        2PZ        -0.81769   0.32338   0.03896  -0.04794  -0.00707
   6        3S         -0.01613  -0.32077   2.50864   2.35041  -3.96126
   7        3PX         0.34965  -0.27168   1.00883  -1.15670  -1.63570
   8        3PY         0.94602  -0.44974  -0.23342   0.20639   0.28089
   9        3PZ         2.10118  -0.99192  -0.22108   0.10905   0.16446
  10        4XX        -0.04502   0.00099   0.08790  -0.14350  -0.07889
  11        4YY         0.02043   0.00028  -0.03514  -0.08096   0.02180
  12        4ZZ         0.02303   0.00676  -0.08108   0.05241   0.13339
  13        4XY        -0.05776   0.01117  -0.02993   0.02175   0.02791
  14        4XZ        -0.12687   0.03266  -0.02527   0.03897   0.03380
  15        4YZ         0.02801  -0.00152  -0.02891   0.08882   0.04994
  16 2   N  1S          0.00075  -0.00290   0.02316  -0.00868  -0.08151
  17        2S          0.00505   0.05763  -0.47596  -0.11216  -1.71538
  18        2PX        -0.03882  -0.08999  -0.79116   0.19538   0.15148
  19        2PY        -0.13344  -0.43728   0.08668  -0.03998  -0.03380
  20        2PZ        -0.22330  -0.82885  -0.00631  -0.03330  -0.02727
  21        3S          0.01206  -0.02486   0.11817   0.27814   5.64777
  22        3PX        -0.01064   0.12225   1.95808  -0.58581  -1.39986
  23        3PY         0.02876   0.86084  -0.24409   0.11370   0.28391
  24        3PZ        -0.03498   1.62396  -0.03234   0.08688   0.20995
  25        4XX         0.05371   0.03558  -0.17390  -0.03868  -0.31044
  26        4YY        -0.02154   0.00105  -0.08072   0.01024  -0.15378
  27        4ZZ        -0.02708  -0.00847   0.00933  -0.00410  -0.27995
  28        4XY         0.06263   0.02249   0.03361   0.01071   0.01388
  29        4XZ         0.13512   0.03895   0.04340   0.00381  -0.02365
  30        4YZ        -0.03237  -0.01771   0.07166  -0.00770  -0.12929
  31 3   H  1S          0.38540  -0.33583  -0.07108   0.57087   0.12673
  32        2S         -1.73751   0.92281  -0.01563  -1.49528   0.24164
  33 4   H  1S         -0.40113   0.34153  -0.00628   0.57410   0.09345
  34        2S          1.74114  -0.85511  -0.19578  -1.50325   0.25980
  35 5   H  1S         -0.29938  -0.37523   0.43148  -0.02353  -0.13806
  36        2S          0.58455   1.41146  -1.07241   0.26109  -0.40583
  37 6   H  1S          0.29563   0.27310   0.50357  -0.01208  -0.17043
  38        2S         -0.57570  -1.14494  -1.36881   0.21797  -0.43649
                          26        27        28        29        30
                           V         V         V         V         V
     Eigenvalues --     1.08335   1.14629   1.18654   1.50221   1.58877
   1 1   C  1S          0.00091   0.00031  -0.00161  -0.00723  -0.03668
   2        2S          0.01420   0.00220  -0.02774  -0.04866  -0.20007
   3        2PX         0.01065  -0.01942   0.00375  -0.01430  -0.08586
   4        2PY         0.07545  -0.17134   0.00323   0.00317   0.01541
   5        2PZ        -0.03481   0.09179   0.00150   0.00292   0.00707
   6        3S         -0.12500  -0.03221   0.12225   0.17903   0.74113
   7        3PX         0.30910   0.13394   0.01211  -0.03054  -0.12286
   8        3PY         1.05629   0.48256  -0.02630   0.01928  -0.00439
   9        3PZ         2.30461   0.87531  -0.04982   0.03117  -0.04546
  10        4XX        -0.01400   0.11419  -0.02382   0.04549   0.12013
  11        4YY         0.03159  -0.17187  -0.42025   0.36464  -0.60604
  12        4ZZ        -0.01556   0.05847   0.44215  -0.41878   0.41609
  13        4XY        -0.14084   0.49430  -0.14264   0.13828  -0.10207
  14        4XZ         0.18568  -0.21892  -0.01835   0.05234   0.12499
  15        4YZ        -0.01715  -0.02177  -0.40421   0.58794   0.45446
  16 2   N  1S         -0.00355  -0.00110   0.00247  -0.00660  -0.02964
  17        2S         -0.04775  -0.01332   0.04183  -0.05901  -0.25229
  18        2PX         0.07445   0.00970  -0.00088   0.00623   0.05640
  19        2PY         0.23196  -0.05306  -0.00058   0.00117  -0.01147
  20        2PZ         0.34706   0.20053  -0.00579   0.00374  -0.01067
  21        3S          0.22279   0.06976  -0.14152   0.16501   0.66804
  22        3PX        -0.51103  -0.19329   0.02517   0.08405   0.34041
  23        3PY        -1.12012  -0.44101   0.01687  -0.02799  -0.04096
  24        3PZ        -2.27167  -0.87516   0.03924  -0.03628  -0.00304
  25        4XX         0.10488  -0.07636  -0.01441  -0.00996   0.07819
  26        4YY        -0.09393   0.13369  -0.46953  -0.57263  -0.29467
  27        4ZZ        -0.03134  -0.06268   0.49813   0.55699   0.08590
  28        4XY         0.28190  -0.45063  -0.13418  -0.14702  -0.00646
  29        4XZ         0.10995   0.35944  -0.00994   0.03174   0.10271
  30        4YZ        -0.05585  -0.01393  -0.38676  -0.27314   0.61898
  31 3   H  1S         -0.61171  -0.24582  -0.00134  -0.09277  -0.36089
  32        2S         -0.85656  -0.34465   0.00120  -0.03887  -0.06901
  33 4   H  1S          0.60274   0.24162  -0.02105  -0.07616  -0.40175
  34        2S          0.83420   0.33030  -0.04107  -0.01801  -0.11335
  35 5   H  1S         -0.62536  -0.24172   0.02606  -0.09829  -0.39297
  36        2S         -0.57854  -0.22258   0.02443  -0.04328  -0.12351
  37 6   H  1S          0.60800   0.23645   0.00288  -0.08792  -0.40583
  38        2S          0.56095   0.21720   0.00625  -0.02919  -0.14148
                          31        32        33        34        35
                           V         V         V         V         V
     Eigenvalues --     1.72817   1.87130   2.04848   2.10402   2.38226
   1 1   C  1S          0.00038  -0.05385   0.03617   0.00113   0.02964
   2        2S          0.00575  -0.33976   0.14344   0.00327  -0.64547
   3        2PX         0.04100  -0.20348   0.04787   0.01978  -0.98105
   4        2PY         0.11093   0.04072  -0.01203   0.14372   0.17170
   5        2PZ         0.24150   0.03258  -0.00115  -0.06446   0.10168
   6        3S         -0.01410   0.16274  -1.15843  -0.03457  -2.25790
   7        3PX        -0.08789   0.30424  -0.18219   0.02194  -1.27193
   8        3PY        -0.16846  -0.05133   0.04215   0.25937   0.24532
   9        3PZ        -0.31202  -0.02691   0.06908  -0.14741   0.17710
  10        4XX        -0.26123   0.67777   0.16763   0.17251  -0.98915
  11        4YY         0.11511  -0.42732   0.37824  -0.24145   0.47354
  12        4ZZ         0.14794  -0.53330  -0.45696   0.07218   0.44147
  13        4XY        -0.32699  -0.24521  -0.05480   0.79581   0.29307
  14        4XZ        -0.66529  -0.17515  -0.18301  -0.45643   0.15108
  15        4YZ         0.17236  -0.00545  -0.58196  -0.02794  -0.07156
  16 2   N  1S         -0.00076  -0.00796  -0.04341  -0.00139  -0.08706
  17        2S          0.00956  -0.44423  -0.50091  -0.01439  -0.15764
  18        2PX         0.00217   0.41137   0.15901  -0.00100  -0.49446
  19        2PY         0.03534  -0.07300  -0.02547  -0.05005   0.09040
  20        2PZ         0.07146  -0.04377  -0.01493   0.02820   0.05818
  21        3S          0.01935   0.26512   1.57640   0.04800   2.76373
  22        3PX         0.18675  -0.65087  -0.14373  -0.04362  -1.77530
  23        3PY         0.47436   0.11889   0.02972  -0.33061   0.30111
  24        3PZ         0.88440   0.07769  -0.01117   0.19493   0.16761
  25        4XX         0.16512   0.43551  -0.04403   0.17217   1.16973
  26        4YY        -0.06392  -0.21317  -0.45917  -0.26639  -0.60312
  27        4ZZ        -0.09755  -0.48038   0.35222   0.08948  -0.62132
  28        4XY         0.21889  -0.15812  -0.03068   0.79450  -0.40065
  29        4XZ         0.49085  -0.14254   0.18833  -0.41554  -0.27227
  30        4YZ        -0.10560  -0.21361   0.67192   0.00181   0.06335
  31 3   H  1S         -0.46613   0.13266   0.41674  -0.00551   0.02778
  32        2S          0.33766  -0.07132  -0.00609   0.01705  -0.05715
  33 4   H  1S          0.43341   0.17638   0.45637   0.03168   0.04752
  34        2S         -0.32856  -0.09057   0.02264  -0.01908  -0.02167
  35 5   H  1S          0.62932   0.25296  -0.53112   0.00076  -0.04048
  36        2S          0.17611  -0.02515  -0.02026   0.00025   0.17663
  37 6   H  1S         -0.64174   0.23125  -0.52580  -0.03382   0.01626
  38        2S         -0.17453  -0.02632  -0.01391   0.00126   0.17778
                          36        37        38
                           V         V         V
     Eigenvalues --     2.42219   3.46123   3.80822
   1 1   C  1S          0.00253  -0.08214  -0.45833
   2        2S         -0.02676   0.77315   2.92790
   3        2PX        -0.01013   0.28067  -0.24627
   4        2PY         0.06805  -0.05132   0.04431
   5        2PZ         0.12108  -0.03268   0.02910
   6        3S         -0.08376  -0.99356   1.73008
   7        3PX        -0.13045  -0.55341  -0.10347
   8        3PY        -0.26120   0.10705   0.01768
   9        3PZ        -0.56994   0.07912   0.00388
  10        4XX         0.22825  -0.09781  -2.10935
  11        4YY        -0.09471  -0.34025  -1.74042
  12        4ZZ        -0.12695  -0.38250  -1.76667
  13        4XY         0.36066  -0.05444   0.07805
  14        4XZ         0.77354  -0.04086   0.04321
  15        4YZ        -0.19163  -0.01537  -0.03277
  16 2   N  1S         -0.00307  -0.48124   0.09886
  17        2S         -0.00102   0.98760  -0.08967
  18        2PX        -0.03258   0.11752  -0.30431
  19        2PY        -0.02860  -0.02152   0.05471
  20        2PZ        -0.06968  -0.01244   0.03386
  21        3S          0.08028   3.86806  -0.93913
  22        3PX         0.06353  -0.28451  -0.09948
  23        3PY         0.30844   0.04878   0.01686
  24        3PZ         0.59599   0.02191   0.01177
  25        4XX         0.37529  -1.64307   0.65997
  26        4YY        -0.16867  -1.53550   0.27419
  27        4ZZ        -0.20711  -1.52494   0.29145
  28        4XY         0.43417   0.02335  -0.07926
  29        4XZ         0.91680   0.01657  -0.04352
  30        4YZ        -0.21416   0.00305   0.02545
  31 3   H  1S          0.41979   0.08093   0.17645
  32        2S          0.12361  -0.03761  -0.48170
  33 4   H  1S         -0.39612   0.08516   0.17247
  34        2S         -0.11816  -0.01696  -0.48561
  35 5   H  1S          0.64000   0.15028  -0.04087
  36        2S         -0.02792  -0.55388   0.15733
  37 6   H  1S         -0.64637   0.15585  -0.04175
  38        2S          0.04010  -0.55184   0.15573
     Density Matrix:
                           1         2         3         4         5
   1 1   C  1S          2.05358
   2        2S         -0.07541   0.36315
   3        2PX         0.01848  -0.02985   0.42382
   4        2PY        -0.00344   0.00565  -0.01437   0.27969
   5        2PZ        -0.00194   0.00334   0.02149   0.10572   0.44825
   6        3S         -0.15075   0.27392  -0.15269   0.02749   0.01686
   7        3PX         0.02009  -0.03892   0.08946   0.01235   0.01951
   8        3PY        -0.00375   0.00734   0.01286   0.12851   0.04371
   9        3PZ        -0.00234   0.00479   0.02066   0.04361   0.19958
  10        4XX        -0.01811   0.00004   0.01988  -0.00300  -0.00882
  11        4YY        -0.01307  -0.01452  -0.00735  -0.00211   0.00555
  12        4ZZ        -0.02091   0.00269  -0.02266   0.00688   0.00425
  13        4XY         0.00057  -0.00201  -0.00654   0.01205  -0.01375
  14        4XZ        -0.00117   0.00212  -0.01168  -0.01494  -0.01311
  15        4YZ        -0.00544   0.01209  -0.00905   0.00326   0.00499
  16 2   N  1S          0.01574  -0.02923  -0.07561   0.01354   0.00781
  17        2S         -0.03186   0.05724   0.16778  -0.02998  -0.01702
  18        2PX         0.08200  -0.17894  -0.33005   0.09366   0.02211
  19        2PY        -0.01452   0.03163   0.09703   0.27269  -0.13468
  20        2PZ        -0.00946   0.02068   0.02137  -0.14706   0.08309
  21        3S         -0.00287   0.00276   0.15448  -0.02716  -0.01394
  22        3PX         0.02951  -0.06466  -0.14265   0.04595   0.00176
  23        3PY        -0.00504   0.01103   0.04857   0.17711  -0.09762
  24        3PZ        -0.00329   0.00725   0.00053  -0.10808   0.03070
  25        4XX        -0.00598   0.00949  -0.00082  -0.00460  -0.00485
  26        4YY         0.00159  -0.00354  -0.00434   0.00478   0.00175
  27        4ZZ         0.00209  -0.00545  -0.00708   0.00200   0.00435
  28        4XY         0.00167  -0.00301  -0.00396  -0.01132  -0.00297
  29        4XZ         0.00111  -0.00221  -0.00397  -0.00284  -0.01778
  30        4YZ         0.00014  -0.00106  -0.00080   0.00216   0.00379
  31 3   H  1S         -0.06522   0.13308  -0.08942   0.12525   0.23104
  32        2S         -0.01005   0.02893  -0.04487   0.06517   0.11870
  33 4   H  1S         -0.06458   0.13159  -0.17053  -0.07949  -0.20636
  34        2S         -0.00983   0.02843  -0.08801  -0.04245  -0.10682
  35 5   H  1S          0.01264  -0.03142  -0.04411   0.01946   0.02979
  36        2S          0.00404  -0.00943  -0.03297   0.02547   0.04139
  37 6   H  1S          0.01232  -0.03079  -0.05362  -0.00161  -0.01970
  38        2S          0.00385  -0.00902  -0.04834  -0.01134  -0.03349
                           6         7         8         9        10
   6        3S          0.25588
   7        3PX        -0.05327   0.02406
   8        3PY         0.00962   0.00923   0.06095
   9        3PZ         0.00604   0.01093   0.01995   0.09213
  10        4XX        -0.00650   0.00312  -0.00050  -0.00384   0.00160
  11        4YY        -0.00738  -0.00010  -0.00155   0.00238  -0.00047
  12        4ZZ         0.01052  -0.00440   0.00226   0.00155  -0.00109
  13        4XY         0.00094  -0.00094   0.00510  -0.00721   0.00006
  14        4XZ         0.00405  -0.00385  -0.00813  -0.00754   0.00000
  15        4YZ         0.01204  -0.00264   0.00142   0.00246  -0.00054
  16 2   N  1S          0.01586  -0.00460   0.00067  -0.00012  -0.00769
  17        2S         -0.04395   0.00973  -0.00138   0.00041   0.01642
  18        2PX        -0.04391  -0.05783   0.02272  -0.00765  -0.01199
  19        2PY         0.00747   0.02520   0.12537  -0.07806   0.01037
  20        2PZ         0.00618  -0.00854  -0.08693   0.00450   0.00542
  21        3S         -0.08142   0.01153  -0.00151   0.00095   0.01563
  22        3PX        -0.01040  -0.02671   0.01236  -0.00748  -0.00457
  23        3PY         0.00133   0.01411   0.08171  -0.05389   0.00598
  24        3PZ         0.00171  -0.00836  -0.06099  -0.00443   0.00280
  25        4XX         0.00672  -0.00161  -0.00221  -0.00255   0.00030
  26        4YY        -0.00033   0.00009   0.00200   0.00075  -0.00046
  27        4ZZ        -0.00261  -0.00125   0.00069   0.00206  -0.00029
  28        4XY        -0.00173  -0.00129  -0.00587  -0.00208  -0.00001
  29        4XZ        -0.00151  -0.00165  -0.00203  -0.00951   0.00055
  30        4YZ        -0.00170  -0.00057   0.00122   0.00209   0.00013
  31 3   H  1S          0.14042  -0.01889   0.05449   0.10369  -0.00899
  32        2S          0.04194  -0.00582   0.02838   0.05400  -0.00497
  33 4   H  1S          0.13836  -0.05639  -0.04139  -0.09700  -0.00225
  34        2S          0.04133  -0.02605  -0.02324  -0.05175  -0.00111
  35 5   H  1S         -0.02242  -0.00873   0.01685   0.03083  -0.00304
  36        2S          0.00449  -0.00322   0.01285   0.02346  -0.00341
  37 6   H  1S         -0.02135  -0.02023  -0.01150  -0.02759   0.00442
  38        2S          0.00515  -0.01238  -0.01031  -0.02224  -0.00019
                          11        12        13        14        15
  11        4YY         0.00104
  12        4ZZ         0.00054   0.00160
  13        4XY        -0.00024   0.00040   0.00160
  14        4XZ         0.00003   0.00009   0.00021   0.00214
  15        4YZ        -0.00022   0.00068  -0.00010  -0.00014   0.00068
  16 2   N  1S          0.00343   0.00499   0.00248   0.00181   0.00060
  17        2S         -0.00716  -0.01097  -0.00530  -0.00395  -0.00161
  18        2PX         0.01174   0.01664   0.01034   0.00665   0.00071
  19        2PY        -0.01083  -0.00245   0.02527  -0.00406  -0.00288
  20        2PZ        -0.00057  -0.00675  -0.00391   0.02443  -0.00433
  21        3S         -0.00479  -0.01058  -0.00483  -0.00411  -0.00302
  22        3PX         0.00425   0.00717   0.00521   0.00322   0.00056
  23        3PY        -0.00640  -0.00080   0.01661  -0.00311  -0.00176
  24        3PZ         0.00021  -0.00380  -0.00290   0.01541  -0.00264
  25        4XX        -0.00042  -0.00009   0.00001   0.00066   0.00017
  26        4YY         0.00024   0.00037   0.00026  -0.00026   0.00005
  27        4ZZ         0.00039   0.00039  -0.00009  -0.00020   0.00007
  28        4XY         0.00025  -0.00013  -0.00029   0.00110  -0.00022
  29        4XZ        -0.00023  -0.00017   0.00103   0.00133  -0.00039
  30        4YZ         0.00006   0.00007  -0.00019  -0.00039   0.00009
  31 3   H  1S         -0.00097   0.00982  -0.00336  -0.00832   0.00950
  32        2S          0.00106   0.00484  -0.00172  -0.00516   0.00375
  33 4   H  1S         -0.00417   0.00635   0.00612   0.01415   0.00452
  34        2S         -0.00073   0.00284   0.00362   0.00780   0.00091
  35 5   H  1S          0.00328   0.00389  -0.00481  -0.01078   0.00272
  36        2S          0.00187   0.00306  -0.00148  -0.00444   0.00173
  37 6   H  1S         -0.00011  -0.00021   0.00529   0.01111  -0.00242
  38        2S          0.00041   0.00132   0.00288   0.00571  -0.00055
                          16        17        18        19        20
  16 2   N  1S          2.05798
  17        2S         -0.11870   0.40586
  18        2PX        -0.00520   0.01055   0.52633
  19        2PY         0.00099  -0.00208   0.00439   0.55456
  20        2PZ         0.00059  -0.00116   0.00291  -0.00647   0.55382
  21        3S         -0.17673   0.40143   0.06155  -0.01202  -0.00768
  22        3PX        -0.00730   0.01521   0.22863   0.01877   0.00562
  23        3PY         0.00150  -0.00319   0.01857   0.34946  -0.03077
  24        3PZ         0.00113  -0.00234   0.00574  -0.03042   0.31915
  25        4XX        -0.01865   0.00374  -0.00362   0.00109   0.00845
  26        4YY        -0.01261  -0.00953   0.00286   0.00229  -0.00527
  27        4ZZ        -0.01950   0.00542   0.01482  -0.00584  -0.00473
  28        4XY         0.00053  -0.00120   0.00338  -0.00900   0.01523
  29        4XZ        -0.00113   0.00242   0.00901   0.01451   0.01365
  30        4YZ        -0.00606   0.01316   0.00936  -0.00357  -0.00539
  31 3   H  1S          0.01094  -0.02702   0.03322  -0.01818  -0.03042
  32        2S          0.00705  -0.01617   0.03933  -0.01935  -0.03291
  33 4   H  1S          0.01098  -0.02739   0.04285   0.00504   0.02200
  34        2S          0.00690  -0.01598   0.05064   0.00340   0.02312
  35 5   H  1S         -0.05401   0.11738   0.10015  -0.13573  -0.23612
  36        2S          0.00117  -0.00521   0.03351  -0.04366  -0.07961
  37 6   H  1S         -0.05397   0.11723   0.18980   0.08536   0.20341
  38        2S          0.00132  -0.00561   0.06344   0.02631   0.06858
                          21        22        23        24        25
  21        3S          0.40857
  22        3PX         0.03560   0.10057
  23        3PY        -0.00734   0.01844   0.22223
  24        3PZ        -0.00510   0.00436  -0.03382   0.18666
  25        4XX         0.00279  -0.00102   0.00023   0.00508   0.00062
  26        4YY        -0.00850   0.00096   0.00178  -0.00323  -0.00012
  27        4ZZ         0.00759   0.00630  -0.00310  -0.00254  -0.00005
  28        4XY        -0.00069   0.00131  -0.00610   0.00969   0.00024
  29        4XZ         0.00288   0.00468   0.00913   0.00821   0.00043
  30        4YZ         0.01403   0.00423  -0.00187  -0.00315  -0.00006
  31 3   H  1S         -0.04092   0.01578  -0.01510  -0.02997  -0.00045
  32        2S         -0.01690   0.01615  -0.01233  -0.02458  -0.00150
  33 4   H  1S         -0.04299   0.02608   0.00769   0.02531   0.00682
  34        2S         -0.01761   0.02483   0.00503   0.02026   0.00272
  35 5   H  1S          0.13138   0.04016  -0.07239  -0.13103  -0.00377
  36        2S         -0.00099   0.01225  -0.02359  -0.04586  -0.00198
  37 6   H  1S          0.12998   0.09019   0.04973   0.11590   0.00379
  38        2S         -0.00204   0.02953   0.01610   0.04114   0.00145
                          26        27        28        29        30
  26        4YY         0.00044
  27        4ZZ         0.00014   0.00077
  28        4XY        -0.00018  -0.00002   0.00073
  29        4XZ        -0.00018  -0.00012   0.00050   0.00157
  30        4YZ        -0.00018   0.00056  -0.00015  -0.00016   0.00070
  31 3   H  1S          0.00186   0.00244  -0.00524  -0.01034   0.00255
  32        2S          0.00139   0.00219  -0.00269  -0.00559   0.00180
  33 4   H  1S         -0.00136  -0.00161   0.00410   0.00987  -0.00220
  34        2S         -0.00049  -0.00011   0.00282   0.00602  -0.00090
  35 5   H  1S         -0.00011   0.00825  -0.00461  -0.00844   0.00902
  36        2S          0.00114   0.00236  -0.00205  -0.00429   0.00189
  37 6   H  1S         -0.00334   0.00398   0.00563   0.01247   0.00417
  38        2S         -0.00035   0.00046   0.00258   0.00508  -0.00030
                          31        32        33        34        35
  31 3   H  1S          0.20561
  32        2S          0.09304   0.04627
  33 4   H  1S         -0.03849  -0.03497   0.20646
  34        2S         -0.03519  -0.02186   0.09443   0.04748
  35 5   H  1S          0.03544   0.03146  -0.02661  -0.01453   0.19024
  36        2S          0.03508   0.02200  -0.01803  -0.01023   0.05333
  37 6   H  1S         -0.02590  -0.01449   0.03581   0.03219  -0.04222
  38        2S         -0.01761  -0.01005   0.03594   0.02264  -0.02883
                          36        37        38
  36        2S          0.02167
  37 6   H  1S         -0.02895   0.19077
  38        2S         -0.01166   0.05348   0.02190
    Full Mulliken population analysis:
                           1         2         3         4         5
   1 1   C  1S          2.05358
   2        2S         -0.01652   0.36315
   3        2PX         0.00000   0.00000   0.42382
   4        2PY         0.00000   0.00000   0.00000   0.27969
   5        2PZ         0.00000   0.00000   0.00000   0.00000   0.44825
   6        3S         -0.02778   0.22250   0.00000   0.00000   0.00000
   7        3PX         0.00000   0.00000   0.05097   0.00000   0.00000
   8        3PY         0.00000   0.00000   0.00000   0.07322   0.00000
   9        3PZ         0.00000   0.00000   0.00000   0.00000   0.11371
  10        4XX        -0.00143   0.00003   0.00000   0.00000   0.00000
  11        4YY        -0.00103  -0.01031   0.00000   0.00000   0.00000
  12        4ZZ        -0.00165   0.00191   0.00000   0.00000   0.00000
  13        4XY         0.00000   0.00000   0.00000   0.00000   0.00000
  14        4XZ         0.00000   0.00000   0.00000   0.00000   0.00000
  15        4YZ         0.00000   0.00000   0.00000   0.00000   0.00000
  16 2   N  1S          0.00000  -0.00057  -0.00310  -0.00010  -0.00004
  17        2S         -0.00036   0.01022   0.04468   0.00143   0.00051
  18        2PX        -0.00215   0.04048   0.09448   0.00645   0.00095
  19        2PY        -0.00007   0.00128   0.00668   0.02319   0.00104
  20        2PZ        -0.00003   0.00052   0.00092   0.00113   0.00769
  21        3S         -0.00019   0.00101   0.04431   0.00140   0.00045
  22        3PX        -0.00404   0.03636   0.02873   0.00383   0.00009
  23        3PY        -0.00012   0.00111   0.00404   0.04387   0.00091
  24        3PZ        -0.00005   0.00046   0.00003   0.00101   0.00788
  25        4XX        -0.00041   0.00343  -0.00033   0.00054   0.00035
  26        4YY         0.00001  -0.00043  -0.00077   0.00006  -0.00003
  27        4ZZ         0.00001  -0.00063  -0.00119  -0.00006   0.00004
  28        4XY        -0.00003   0.00023   0.00045   0.00208  -0.00005
  29        4XZ        -0.00001   0.00011   0.00028  -0.00005   0.00356
  30        4YZ         0.00000  -0.00001  -0.00001   0.00004   0.00014
  31 3   H  1S         -0.00214   0.03647   0.01141   0.02045   0.07075
  32        2S         -0.00093   0.01378   0.00412   0.00765   0.02613
  33 4   H  1S         -0.00213   0.03616   0.03897   0.00790   0.05657
  34        2S         -0.00091   0.01356   0.01443   0.00303   0.02101
  35 5   H  1S          0.00000  -0.00041  -0.00095  -0.00018  -0.00038
  36        2S          0.00007  -0.00127  -0.00353  -0.00119  -0.00262
  37 6   H  1S          0.00000  -0.00040  -0.00139   0.00000  -0.00015
  38        2S          0.00007  -0.00122  -0.00620  -0.00006  -0.00124
                           6         7         8         9        10
   6        3S          0.25588
   7        3PX         0.00000   0.02406
   8        3PY         0.00000   0.00000   0.06095
   9        3PZ         0.00000   0.00000   0.00000   0.09213
  10        4XX        -0.00410   0.00000   0.00000   0.00000   0.00160
  11        4YY        -0.00465   0.00000   0.00000   0.00000  -0.00016
  12        4ZZ         0.00663   0.00000   0.00000   0.00000  -0.00036
  13        4XY         0.00000   0.00000   0.00000   0.00000   0.00000
  14        4XZ         0.00000   0.00000   0.00000   0.00000   0.00000
  15        4YZ         0.00000   0.00000   0.00000   0.00000   0.00000
  16 2   N  1S          0.00088  -0.00049  -0.00001   0.00000  -0.00040
  17        2S         -0.01384   0.00483   0.00012  -0.00002   0.00535
  18        2PX         0.00809   0.00637   0.00122  -0.00026   0.00435
  19        2PY         0.00025   0.00135   0.02252   0.00047   0.00104
  20        2PZ         0.00013  -0.00029   0.00052   0.00084   0.00034
  21        3S         -0.04642   0.00713   0.00017  -0.00007   0.00587
  22        3PX         0.00574   0.00086   0.00133  -0.00050   0.00192
  23        3PY         0.00013   0.00152   0.04471   0.00065   0.00070
  24        3PZ         0.00011  -0.00056   0.00073  -0.00248   0.00020
  25        4XX         0.00248  -0.00065   0.00024   0.00017   0.00014
  26        4YY        -0.00009   0.00004  -0.00009  -0.00004  -0.00009
  27        4ZZ        -0.00073  -0.00056  -0.00006  -0.00006  -0.00005
  28        4XY         0.00005   0.00002   0.00091  -0.00001   0.00000
  29        4XZ         0.00003   0.00002  -0.00001   0.00152  -0.00005
  30        4YZ        -0.00001   0.00000   0.00002   0.00006   0.00000
  31 3   H  1S          0.05298   0.00336   0.01239   0.04423  -0.00142
  32        2S          0.02956   0.00117   0.00730   0.02605  -0.00180
  33 4   H  1S          0.05227   0.01792   0.00572   0.03698  -0.00056
  34        2S          0.02915   0.00936   0.00363   0.02230  -0.00043
  35 5   H  1S         -0.00208  -0.00165  -0.00139  -0.00344  -0.00006
  36        2S          0.00135  -0.00120  -0.00209  -0.00516  -0.00045
  37 6   H  1S         -0.00200  -0.00457  -0.00011  -0.00180   0.00011
  38        2S          0.00156  -0.00549  -0.00019  -0.00285  -0.00003
                          11        12        13        14        15
  11        4YY         0.00104
  12        4ZZ         0.00018   0.00160
  13        4XY         0.00000   0.00000   0.00160
  14        4XZ         0.00000   0.00000   0.00000   0.00214
  15        4YZ         0.00000   0.00000   0.00000   0.00000   0.00068
  16 2   N  1S          0.00001   0.00001  -0.00004  -0.00002   0.00000
  17        2S         -0.00053  -0.00076   0.00043   0.00020  -0.00001
  18        2PX        -0.00129  -0.00167   0.00118   0.00047  -0.00001
  19        2PY         0.00017  -0.00004   0.00369   0.00007   0.00005
  20        2PZ        -0.00001   0.00007   0.00006   0.00396   0.00013
  21        3S         -0.00122  -0.00267   0.00019   0.00010  -0.00001
  22        3PX        -0.00187  -0.00312   0.00016   0.00006   0.00000
  23        3PY        -0.00024  -0.00006   0.00310   0.00002   0.00004
  24        3PZ         0.00001  -0.00009   0.00002   0.00298   0.00009
  25        4XX        -0.00008  -0.00002   0.00000  -0.00006   0.00000
  26        4YY         0.00002   0.00001   0.00001   0.00001   0.00000
  27        4ZZ         0.00002   0.00004   0.00000  -0.00001   0.00000
  28        4XY         0.00001   0.00001   0.00008   0.00003  -0.00001
  29        4XZ         0.00001   0.00000   0.00003  -0.00042  -0.00003
  30        4YZ         0.00000   0.00000  -0.00001  -0.00003   0.00001
  31 3   H  1S         -0.00018   0.00344   0.00030   0.00139   0.00204
  32        2S          0.00039   0.00197   0.00004   0.00021   0.00019
  33 4   H  1S         -0.00059   0.00193   0.00060   0.00379   0.00053
  34        2S         -0.00026   0.00113   0.00008   0.00050   0.00003
  35 5   H  1S          0.00002   0.00003   0.00006   0.00018   0.00002
  36        2S          0.00018   0.00032   0.00005   0.00020   0.00003
  37 6   H  1S          0.00000   0.00000   0.00001   0.00013   0.00000
  38        2S          0.00004   0.00012   0.00001   0.00018   0.00000
                          16        17        18        19        20
  16 2   N  1S          2.05798
  17        2S         -0.02638   0.40586
  18        2PX         0.00000   0.00000   0.52633
  19        2PY         0.00000   0.00000   0.00000   0.55456
  20        2PZ         0.00000   0.00000   0.00000   0.00000   0.55382
  21        3S         -0.03037   0.31131   0.00000   0.00000   0.00000
  22        3PX         0.00000   0.00000   0.11873   0.00000   0.00000
  23        3PY         0.00000   0.00000   0.00000   0.18147   0.00000
  24        3PZ         0.00000   0.00000   0.00000   0.00000   0.16573
  25        4XX        -0.00094   0.00238   0.00000   0.00000   0.00000
  26        4YY        -0.00064  -0.00606   0.00000   0.00000   0.00000
  27        4ZZ        -0.00098   0.00345   0.00000   0.00000   0.00000
  28        4XY         0.00000   0.00000   0.00000   0.00000   0.00000
  29        4XZ         0.00000   0.00000   0.00000   0.00000   0.00000
  30        4YZ         0.00000   0.00000   0.00000   0.00000   0.00000
  31 3   H  1S          0.00000  -0.00012  -0.00025  -0.00006  -0.00015
  32        2S          0.00009  -0.00151  -0.00260  -0.00055  -0.00139
  33 4   H  1S          0.00000  -0.00014  -0.00042   0.00000  -0.00008
  34        2S          0.00009  -0.00155  -0.00413  -0.00001  -0.00065
  35 5   H  1S         -0.00179   0.02982   0.01160   0.02066   0.06068
  36        2S          0.00009  -0.00219   0.00236   0.00404   0.01244
  37 6   H  1S         -0.00180   0.02997   0.04063   0.00820   0.04483
  38        2S          0.00010  -0.00236   0.00822   0.00153   0.00915
                          21        22        23        24        25
  21        3S          0.40857
  22        3PX         0.00000   0.10057
  23        3PY         0.00000   0.00000   0.22223
  24        3PZ         0.00000   0.00000   0.00000   0.18666
  25        4XX         0.00187   0.00000   0.00000   0.00000   0.00062
  26        4YY        -0.00569   0.00000   0.00000   0.00000  -0.00004
  27        4ZZ         0.00508   0.00000   0.00000   0.00000  -0.00002
  28        4XY         0.00000   0.00000   0.00000   0.00000   0.00000
  29        4XZ         0.00000   0.00000   0.00000   0.00000   0.00000
  30        4YZ         0.00000   0.00000   0.00000   0.00000   0.00000
  31 3   H  1S         -0.00257  -0.00215  -0.00089  -0.00261  -0.00001
  32        2S         -0.00416  -0.00487  -0.00161  -0.00474  -0.00018
  33 4   H  1S         -0.00285  -0.00442  -0.00005  -0.00148   0.00016
  34        2S         -0.00446  -0.00910  -0.00006  -0.00256   0.00040
  35 5   H  1S          0.05288   0.00802   0.01901   0.05809  -0.00071
  36        2S         -0.00069   0.00239   0.00604   0.01982  -0.00076
  37 6   H  1S          0.05247   0.03316   0.00821   0.04388   0.00115
  38        2S         -0.00143   0.01057   0.00259   0.01516   0.00059
                          26        27        28        29        30
  26        4YY         0.00044
  27        4ZZ         0.00005   0.00077
  28        4XY         0.00000   0.00000   0.00073
  29        4XZ         0.00000   0.00000   0.00000   0.00157
  30        4YZ         0.00000   0.00000   0.00000   0.00000   0.00070
  31 3   H  1S          0.00001   0.00002   0.00005   0.00015   0.00002
  32        2S          0.00012   0.00021   0.00008   0.00026   0.00004
  33 4   H  1S          0.00000  -0.00001   0.00000   0.00012   0.00000
  34        2S         -0.00004  -0.00001   0.00001   0.00022   0.00000
  35 5   H  1S         -0.00002   0.00310   0.00050   0.00155   0.00218
  36        2S          0.00045   0.00100   0.00005   0.00016   0.00009
  37 6   H  1S         -0.00058   0.00125   0.00071   0.00361   0.00054
  38        2S         -0.00013   0.00019   0.00007   0.00030  -0.00001
                          31        32        33        34        35
  31 3   H  1S          0.20561
  32        2S          0.06124   0.04627
  33 4   H  1S         -0.00043  -0.00426   0.20646
  34        2S         -0.00429  -0.00775   0.06216   0.04748
  35 5   H  1S          0.00000   0.00032  -0.00003  -0.00074   0.19024
  36        2S          0.00036   0.00169  -0.00092  -0.00211   0.03511
  37 6   H  1S         -0.00003  -0.00069   0.00000   0.00035  -0.00091
  38        2S         -0.00084  -0.00199   0.00039   0.00180  -0.00457
                          36        37        38
  36        2S          0.02167
  37 6   H  1S         -0.00459   0.19077
  38        2S         -0.00487   0.03521   0.02190
     Gross orbital populations:
                           1
   1 1   C  1S          1.99174
   2        2S          0.75101
   3        2PX         0.75086
   4        2PY         0.47531
   5        2PZ         0.75551
   6        3S          0.56806
   7        3PX         0.11353
   8        3PY         0.23175
   9        3PZ         0.32242
  10        4XX         0.01026
  11        4YY        -0.02034
  12        4ZZ         0.00894
  13        4XY         0.01166
  14        4XZ         0.01609
  15        4YZ         0.00375
  16 2   N  1S          1.99161
  17        2S          0.79470
  18        2PX         0.85912
  19        2PY         0.83152
  20        2PZ         0.86038
  21        3S          0.79001
  22        3PX         0.32243
  23        3PY         0.53731
  24        3PZ         0.48829
  25        4XX         0.01028
  26        4YY        -0.01354
  27        4ZZ         0.01088
  28        4XY         0.00598
  29        4XZ         0.01292
  30        4YZ         0.00376
  31 3   H  1S          0.50853
  32        2S          0.18986
  33 4   H  1S          0.51024
  34        2S          0.19161
  35 5   H  1S          0.47478
  36        2S          0.07634
  37 6   H  1S          0.47616
  38        2S          0.07628
          Condensed to atoms (all electrons):
               1          2          3          4          5          6
     1  C    4.812458   0.485151   0.371302   0.372632  -0.025520  -0.025461
     2  N    0.485151   6.459294  -0.029379  -0.031044   0.310870   0.310758
     3  H    0.371302  -0.029379   0.374370  -0.016733   0.002380  -0.003549
     4  H    0.372632  -0.031044  -0.016733   0.378254  -0.003801   0.002542
     5  H   -0.025520   0.310870   0.002380  -0.003801   0.282130  -0.014941
     6  H   -0.025461   0.310758  -0.003549   0.002542  -0.014941   0.283082
 Mulliken charges:
               1
     1  C    0.009438
     2  N   -0.505650
     3  H    0.301610
     4  H    0.298151
     5  H    0.448883
     6  H    0.447568
 Sum of Mulliken charges =   1.00000
 Mulliken charges with hydrogens summed into heavy atoms:
               1
     1  C    0.609199
     2  N    0.390801
 Electronic spatial extent (au):  <R**2>=            252.5669
 Charge=              1.0000 electrons
 Dipole moment (field-independent basis, Debye):
    X=             -8.0668    Y=              1.2014    Z=              0.6055  Tot=              8.1782
 Quadrupole moment (field-independent basis, Debye-Ang):
   XX=              8.6461   YY=            -10.6640   ZZ=             -8.0305
   XY=             -2.9194   XZ=             -1.0690   YZ=              2.2622
 Traceless Quadrupole moment (field-independent basis, Debye-Ang):
   XX=             11.9956   YY=             -7.3145   ZZ=             -4.6811
   XY=             -2.9194   XZ=             -1.0690   YZ=              2.2622
 Octapole moment (field-independent basis, Debye-Ang**2):
  XXX=              6.4607  YYY=             -8.8534  ZZZ=             -3.7316  XYY=             18.9631
  XXY=              5.1264  XXZ=              1.3715  XZZ=             15.1457  YZZ=             -1.8506
  YYZ=             -0.6346  XYZ=             -3.5427
 Hexadecapole moment (field-independent basis, Debye-Ang**3):
 XXXX=           -114.3216 YYYY=            -17.6130 ZZZZ=            -15.4846 XXXY=             -2.8168
 XXXZ=              3.3071 YYYX=             18.3718 YYYZ=             -2.4193 ZZZX=              7.2363
 ZZZY=             -0.9627 XXYY=            -43.1959 XXZZ=            -34.2406 YYZZ=             -4.6972
 XXYZ=              7.1478 YYXZ=              0.9358 ZZXY=              3.4241
 N-N= 3.855094009098D+01 E-N=-2.923642338625D+02  KE= 9.397748399640D+01
 Orbital energies and kinetic energies (alpha):
                                 1                 2
   1         O               -14.690324         21.955454
   2         O               -10.547949         15.880537
   3         O                -1.245933          2.011675
   4         O                -0.951956          1.641659
   5         O                -0.848140          1.309238
   6         O                -0.787616          1.472077
   7         O                -0.683967          1.227932
   8         O                -0.651416          1.490170
   9         V                -0.320330          1.587060
  10         V                -0.168629          1.122843
  11         V                -0.134665          1.043447
  12         V                -0.102480          1.170656
  13         V                -0.014916          1.105961
  14         V                 0.036936          1.415268
  15         V                 0.275723          1.981274
  16         V                 0.277144          2.183391
  17         V                 0.320708          1.666760
  18         V                 0.383079          1.609841
  19         V                 0.441814          2.638831
  20         V                 0.450155          2.336014
  21         V                 0.557812          2.393802
  22         V                 0.617032          3.182293
  23         V                 0.623618          2.936430
  24         V                 0.669108          2.458748
  25         V                 0.938103          2.274832
  26         V                 1.083348          2.516478
  27         V                 1.146289          2.698106
  28         V                 1.186544          2.637199
  29         V                 1.502213          2.993596
  30         V                 1.588774          3.124310
  31         V                 1.728166          3.490725
  32         V                 1.871305          3.709314
  33         V                 2.048479          3.724228
  34         V                 2.104024          3.671736
  35         V                 2.382258          4.866569
  36         V                 2.422193          4.226853
  37         V                 3.461232          9.901669
  38         V                 3.808218          9.915533
 Total kinetic energy from orbitals= 9.397748399640D+01

 Test job not archived.
 1\1\GINC-EAM\SP\RB3LYP\6-31G(d)\C1H4N1(1+)\DULIKAI\30-Apr-2014\0\\# b3
 lyp/6-31g* scf=(tight,maxcycle=10000) iop(9/40=20) nosymm pop=full\\[0
 ] [0]\\1,1\C,0,-2.4296568,0.3811852,0.2130064\N,0,-1.174652,0.1559854,
 0.0725588\H,0,-2.8056585,0.8622392,1.1152199\H,0,-3.1009308,0.0892632,
 -0.5922419\H,0,-0.8042914,-0.3306266,-0.749091\H,0,-0.4951867,0.460979
 7,0.7721549\\Version=EM64L-G09RevD.01\HF=-94.9738115\RMSD=4.963e-09\Di
 pole=0.1618169,-0.0232046,-0.0210091\Quadrupole=8.9184281,-5.4381757,-
 3.4802524,-2.1704816,-0.7947881,1.6819004\PG=C01 [X(C1H4N1)]\\@


 THEREFORE SHALL EVIL COME UPON THEE...
 THOU SHALT NOT KNOW FROM WHENCE IT RISETH...
 AND MISCHIEF SHALL FALL UPON THEE...
 THOU SHALT NOT BE ABLE TO PUT IT OFF...
 AND DESOLATION SHALL COME UPON THEE SUDDENLY...
 WHICH THOU SHALT NOT KNOW...

                                         ISAIAH 47.11
 Job cpu time:       0 days  0 hours  0 minutes  4.0 seconds.
 File lengths (MBytes):  RWF=      5 Int=      0 D2E=      0 Chk=      1 Scr=      1
 Normal termination of Gaussian 09 at Wed Apr 30 11:40:30 2014.
 Initial command:
 /opt/g09_D01_em64t/g09/l1.exe "/tmp/Gau-20947.inp" -scrdir="/tmp/"
 Entering Link 1 = /opt/g09_D01_em64t/g09/l1.exe PID=     20976.
  
 Copyright (c) 1988,1990,1992,1993,1995,1998,2003,2009,2013,
            Gaussian, Inc.  All Rights Reserved.
  
 This is part of the Gaussian(R) 09 program.  It is based on
 the Gaussian(R) 03 system (copyright 2003, Gaussian, Inc.),
 the Gaussian(R) 98 system (copyright 1998, Gaussian, Inc.),
 the Gaussian(R) 94 system (copyright 1995, Gaussian, Inc.),
 the Gaussian 92(TM) system (copyright 1992, Gaussian, Inc.),
 the Gaussian 90(TM) system (copyright 1990, Gaussian, Inc.),
 the Gaussian 88(TM) system (copyright 1988, Gaussian, Inc.),
 the Gaussian 86(TM) system (copyright 1986, Carnegie Mellon
 University), and the Gaussian 82(TM) system (copyright 1983,
 Carnegie Mellon University). Gaussian is a federally registered
 trademark of Gaussian, Inc.
  
 This software contains proprietary and confidential information,
 including trade secrets, belonging to Gaussian, Inc.
  
 This software is provided under written license and may be
 used, copied, transmitted, or stored only in accord with that
 written license.
  
 The following legend is applicable only to US Government
 contracts under FAR:
  
                    RESTRICTED RIGHTS LEGEND
  
 Use, reproduction and disclosure by the US Government is
 subject to restrictions as set forth in subparagraphs (a)
 and (c) of the Commercial Computer Software - Restricted
 Rights clause in FAR 52.227-19.
  
 Gaussian, Inc.
 340 Quinnipiac St., Bldg. 40, Wallingford CT 06492
  
  
 ---------------------------------------------------------------
 Warning -- This program may not be used in any manner that
 competes with the business of Gaussian, Inc. or will provide
 assistance to any competitor of Gaussian, Inc.  The licensee
 of this program is prohibited from giving any competitor of
 Gaussian, Inc. access to this program.  By using this program,
 the user acknowledges that Gaussian, Inc. is engaged in the
 business of creating and licensing software in the field of
 computational chemistry and represents and warrants to the
 licensee that it is not a competitor of Gaussian, Inc. and that
 it will not use this program in any manner prohibited above.
 ---------------------------------------------------------------
  

 Cite this work as:
 Gaussian 09, Revision D.01,
 M. J. Frisch, G. W. Trucks, H. B. Schlegel, G. E. Scuseria, 
 M. A. Robb, J. R. Cheeseman, G. Scalmani, V. Barone, B. Mennucci, 
 G. A. Petersson, H. Nakatsuji, M. Caricato, X. Li, H. P. Hratchian, 
 A. F. Izmaylov, J. Bloino, G. Zheng, J. L. Sonnenberg, M. Hada, 
 M. Ehara, K. Toyota, R. Fukuda, J. Hasegawa, M. Ishida, T. Nakajima, 
 Y. Honda, O. Kitao, H. Nakai, T. Vreven, J. A. Montgomery, Jr., 
 J. E. Peralta, F. Ogliaro, M. Bearpark, J. J. Heyd, E. Brothers, 
 K. N. Kudin, V. N. Staroverov, T. Keith, R. Kobayashi, J. Normand, 
 K. Raghavachari, A. Rendell, J. C. Burant, S. S. Iyengar, J. Tomasi, 
 M. Cossi, N. Rega, J. M. Millam, M. Klene, J. E. Knox, J. B. Cross, 
 V. Bakken, C. Adamo, J. Jaramillo, R. Gomperts, R. E. Stratmann, 
 O. Yazyev, A. J. Austin, R. Cammi, C. Pomelli, J. W. Ochterski, 
 R. L. Martin, K. Morokuma, V. G. Zakrzewski, G. A. Voth, 
 P. Salvador, J. J. Dannenberg, S. Dapprich, A. D. Daniels, 
 O. Farkas, J. B. Foresman, J. V. Ortiz, J. Cioslowski, 
 and D. J. Fox, Gaussian, Inc., Wallingford CT, 2013.
 
 ******************************************
 Gaussian 09:  EM64L-G09RevD.01 24-Apr-2013
                30-Apr-2014 
 ******************************************
 %chk=gaussian.chk
 %mem=1GB
 %nproc=2
 Will use up to    2 processors via shared memory.
 %nproclinda=1
 Will use up to    1 processors via Linda.
 ----------------------------------------------------------------------
 # force b3lyp/ChkBasis scf=(tight,maxcycle=10000) iop(9/40=20) nosymm 
 pop=full geom=AllCheck Guess=Read
 ----------------------------------------------------------------------
 1/10=7,29=7,30=1,38=1/1,3;
 2/12=2,15=1,40=1/2;
 3/5=7,6=2,11=2,14=-4,16=1,25=1,30=1,67=1,71=1,74=-5,116=-2/1,2,3;
 4/5=1/1;
 5/5=2,7=10000,32=2,38=6/2;
 6/7=3,28=1/1;
 7/29=1,30=1/1,2,3,16;
 1/10=7,30=1/3;
 99//99;
 Structure from the checkpoint file:  "gaussian.chk"
 -------
 [0] [0]
 -------
 Charge =  1 Multiplicity = 1
 Z-Matrix found in file.
 C,0,-2.4296568,0.3811852,0.2130064
 N,0,-1.174652,0.1559854,0.0725588
 H,0,-2.8056585,0.8622392,1.1152199
 H,0,-3.1009308,0.0892632,-0.5922419
 H,0,-0.8042914,-0.3306266,-0.749091
 H,0,-0.4951867,0.4609797,0.7721549
 Recover connectivity data from disk.

 GradGradGradGradGradGradGradGradGradGradGradGradGradGradGradGradGradGrad
 Berny optimization.
 Initialization pass.
 Trust Radius=3.00D-01 FncErr=1.00D-07 GrdErr=1.00D-07
 Number of steps in this run=      2 maximum allowed number of steps=      2.
 GradGradGradGradGradGradGradGradGradGradGradGradGradGradGradGradGradGrad

                          Input orientation:                          
 ---------------------------------------------------------------------
 Center     Atomic      Atomic             Coordinates (Angstroms)
 Number     Number       Type             X           Y           Z
 ---------------------------------------------------------------------
      1          6           0       -2.429657    0.381185    0.213006
      2          7           0       -1.174652    0.155985    0.072559
      3          1           0       -2.805659    0.862239    1.115220
      4          1           0       -3.100931    0.089263   -0.592242
      5          1           0       -0.804291   -0.330627   -0.749091
      6          1           0       -0.495187    0.460980    0.772155
 ---------------------------------------------------------------------
                    Distance matrix (angstroms):
                    1          2          3          4          5
     1  C    0.000000
     2  N    1.282762   0.000000
     3  H    1.089394   2.060611   0.000000
     4  H    1.088233   2.038863   1.897394   0.000000
     5  H    2.018445   1.024240   2.983966   2.339970   0.000000
     6  H    2.015239   1.021826   2.370017   2.964735   1.742520
                    6
     6  H    0.000000
 Symmetry turned off by external request.
 Stoichiometry    CH4N(1+)
 Framework group  C1[X(CH4N)]
 Deg. of freedom    12
 Full point group                 C1      NOp   1
 Rotational constants (GHZ):    151.1380816     31.1471375     25.8320888
 Basis read from chk: "gaussian.chk" (6D, 7F)
    38 basis functions,    72 primitive gaussians,    38 cartesian basis functions
     8 alpha electrons        8 beta electrons
       nuclear repulsion energy        38.5509400910 Hartrees.
 NAtoms=    6 NActive=    6 NUniq=    6 SFac= 1.00D+00 NAtFMM=   60 NAOKFM=F Big=F
 Integral buffers will be    131072 words long.
 Raffenetti 2 integral format.
 Two-electron integral symmetry is turned off.
 One-electron integrals computed using PRISM.
 NBasis=    38 RedAO= T EigKep=  8.44D-03  NBF=    38
 NBsUse=    38 1.00D-06 EigRej= -1.00D+00 NBFU=    38
 Initial guess from the checkpoint file:  "gaussian.chk"
 B after Tr=     0.000000    0.000000    0.000000
         Rot=    1.000000    0.000000    0.000000    0.000000 Ang=   0.00 deg.
 Keep R1 ints in memory in canonical form, NReq=101191747.
 Requested convergence on RMS density matrix=1.00D-08 within**** cycles.
 Requested convergence on MAX density matrix=1.00D-06.
 Requested convergence on             energy=1.00D-06.
 No special actions if energy rises.
 SCF Done:  E(RB3LYP) =  -94.9738114598     A.U. after    1 cycles
            NFock=  1  Conv=0.63D-09     -V/T= 2.0106

 **********************************************************************

            Population analysis using the SCF density.

 **********************************************************************

 Alpha  occ. eigenvalues --  -14.69032 -10.54795  -1.24593  -0.95196  -0.84814
 Alpha  occ. eigenvalues --   -0.78762  -0.68397  -0.65142
 Alpha virt. eigenvalues --   -0.32033  -0.16863  -0.13466  -0.10248  -0.01492
 Alpha virt. eigenvalues --    0.03694   0.27572   0.27714   0.32071   0.38308
 Alpha virt. eigenvalues --    0.44181   0.45015   0.55781   0.61703   0.62362
 Alpha virt. eigenvalues --    0.66911   0.93810   1.08335   1.14629   1.18654
 Alpha virt. eigenvalues --    1.50221   1.58877   1.72817   1.87130   2.04848
 Alpha virt. eigenvalues --    2.10402   2.38226   2.42219   3.46123   3.80822
     Molecular Orbital Coefficients:
                           1         2         3         4         5
                           O         O         O         O         O
     Eigenvalues --   -14.69032 -10.54795  -1.24593  -0.95196  -0.84814
   1 1   C  1S          0.00007   0.99270  -0.10989  -0.16282  -0.00127
   2        2S          0.00033   0.04867   0.22095   0.34666   0.00280
   3        2PX         0.00027   0.00100   0.14887  -0.01468   0.04227
   4        2PY        -0.00005  -0.00018  -0.02687   0.00208   0.10698
   5        2PZ        -0.00003  -0.00011  -0.01729  -0.00053   0.22220
   6        3S         -0.00081  -0.00939   0.08457   0.28429   0.00302
   7        3PX        -0.00038   0.00035  -0.00839  -0.02243   0.01209
   8        3PY         0.00007  -0.00006   0.00184   0.00400   0.03172
   9        3PZ         0.00004  -0.00001   0.00152   0.00174   0.06632
  10        4XX        -0.00006  -0.00890   0.01631  -0.00376   0.00331
  11        4YY         0.00000  -0.00985  -0.01323  -0.01238  -0.00148
  12        4ZZ         0.00000  -0.00961  -0.00898   0.00392  -0.00198
  13        4XY         0.00001  -0.00019  -0.00596  -0.00081   0.00424
  14        4XZ         0.00001  -0.00007  -0.00277   0.00266   0.00784
  15        4YZ         0.00000   0.00020   0.00398   0.01122  -0.00202
  16 2   N  1S          0.99261  -0.00031  -0.19418   0.07521   0.00024
  17        2S          0.03480  -0.00019   0.41401  -0.16782  -0.00040
  18        2PX        -0.00017   0.00040  -0.07474  -0.32112   0.08125
  19        2PY         0.00003  -0.00007   0.01398   0.05572   0.20814
  20        2PZ         0.00002  -0.00005   0.00837   0.03411   0.40603
  21        3S          0.00482   0.00136   0.38634  -0.23139  -0.00090
  22        3PX        -0.00006   0.00031  -0.01618  -0.13245   0.04262
  23        3PY         0.00001  -0.00005   0.00287   0.02273   0.10886
  24        3PZ         0.00001  -0.00004   0.00110   0.01394   0.21193
  25        4XX        -0.00834  -0.00068   0.00860   0.00768   0.00305
  26        4YY        -0.00846  -0.00008  -0.01024   0.00072  -0.00121
  27        4ZZ        -0.00842  -0.00016   0.00317  -0.01290  -0.00183
  28        4XY        -0.00002   0.00012  -0.00254  -0.00304   0.00436
  29        4XZ         0.00000   0.00006   0.00139  -0.00475   0.00831
  30        4YZ         0.00003  -0.00007   0.01209  -0.01109  -0.00195
  31 3   H  1S         -0.00001  -0.00036   0.03401   0.12169   0.09070
  32        2S          0.00001   0.00209  -0.00312   0.02051   0.03363
  33 4   H  1S         -0.00002  -0.00035   0.03520   0.12244  -0.09000
  34        2S          0.00001   0.00211  -0.00201   0.02044  -0.03412
  35 5   H  1S          0.00031   0.00001   0.09733  -0.13432  -0.19443
  36        2S         -0.00058  -0.00003  -0.00978  -0.02023  -0.04936
  37 6   H  1S          0.00031   0.00001   0.09794  -0.13599   0.19352
  38        2S         -0.00058  -0.00002  -0.00953  -0.02029   0.04867
                           6         7         8         9        10
                           O         O         O         V         V
     Eigenvalues --    -0.78762  -0.68397  -0.65142  -0.32033  -0.16863
   1 1   C  1S          0.05244   0.00008   0.00035   0.00070  -0.01817
   2        2S         -0.10103   0.00012  -0.00074  -0.00168   0.05935
   3        2PX         0.42427   0.07211   0.05039   0.06242  -0.14861
   4        2PY        -0.07891   0.13267   0.32225   0.48644   0.02118
   5        2PZ        -0.04892   0.40495  -0.08987  -0.23192   0.00399
   6        3S         -0.19966  -0.00131  -0.00150  -0.00307   0.25476
   7        3PX         0.09767   0.03428   0.02439   0.06675  -0.48685
   8        3PY        -0.01876   0.06900   0.15600   0.51261   0.07500
   9        3PZ        -0.01202   0.19989  -0.03948  -0.24085   0.02534
  10        4XX         0.01833  -0.00895   0.00380  -0.00336   0.01485
  11        4YY        -0.00430   0.00502  -0.00694   0.00538  -0.00096
  12        4ZZ        -0.02420   0.00372   0.00310  -0.00187  -0.01093
  13        4XY        -0.00601  -0.01547   0.02169  -0.01699  -0.00494
  14        4XZ        -0.00712  -0.02531  -0.01735   0.01040  -0.00606
  15        4YZ        -0.01256   0.00603   0.00044   0.00008  -0.00705
  16 2   N  1S         -0.01888  -0.00086   0.00014  -0.00048  -0.11876
  17        2S          0.04633   0.00218  -0.00033   0.00129   0.22702
  18        2PX        -0.37768  -0.05654   0.04498  -0.04125   0.17354
  19        2PY         0.06752  -0.17341   0.44275  -0.35179  -0.03565
  20        2PZ         0.04601  -0.17610  -0.27873   0.18983  -0.03101
  21        3S          0.03795   0.00395  -0.00047   0.00225   1.64012
  22        3PX        -0.16875  -0.03579   0.03006  -0.04643   0.28299
  23        3PY         0.03044  -0.11160   0.29216  -0.40101  -0.05704
  24        3PZ         0.02140  -0.11674  -0.18476   0.21639  -0.04868
  25        4XX        -0.00204  -0.00852  -0.00447  -0.00594  -0.01384
  26        4YY        -0.00252   0.00320   0.00503   0.00807  -0.01902
  27        4ZZ        -0.01051   0.00509  -0.00062  -0.00221  -0.02739
  28        4XY        -0.00083  -0.00970  -0.01542  -0.02568  -0.00108
  29        4XZ        -0.00211  -0.02601   0.00317   0.01194  -0.00145
  30        4YZ        -0.00649   0.00573   0.00114   0.00091  -0.00648
  31 3   H  1S         -0.16431   0.22471   0.03352  -0.00426  -0.01258
  32        2S         -0.07770   0.12303   0.01989  -0.00873  -0.34012
  33 4   H  1S         -0.15681  -0.23042  -0.03485   0.00648  -0.02277
  34        2S         -0.07486  -0.12691  -0.02092   0.01177  -0.40403
  35 5   H  1S         -0.09790   0.14049   0.02191   0.00619  -0.13473
  36        2S         -0.04554   0.07516   0.01314   0.01023  -1.02083
  37 6   H  1S         -0.09465  -0.14284  -0.02207  -0.00789  -0.12313
  38        2S         -0.04449  -0.07690  -0.01365  -0.01314  -0.95684
                          11        12        13        14        15
                           V         V         V         V         V
     Eigenvalues --    -0.13466  -0.10248  -0.01492   0.03694   0.27572
   1 1   C  1S          0.00393  -0.13606  -0.00149  -0.06588   0.00005
   2        2S         -0.00900   0.27590  -0.00114   0.01291  -0.00343
   3        2PX        -0.03601  -0.15521   0.07327   0.18457  -0.12518
   4        2PY        -0.10293   0.02867   0.16230  -0.04118  -0.87698
   5        2PZ        -0.24047   0.01234   0.37261  -0.03691   0.41888
   6        3S         -0.04695   1.97451   0.04110   2.17334  -0.00648
   7        3PX        -0.05453  -0.33269   0.29282   2.30649   0.13330
   8        3PY        -0.19025   0.06223   0.57006  -0.44174   0.98250
   9        3PZ        -0.46309   0.02441   1.25534  -0.31073  -0.47335
  10        4XX        -0.01048  -0.01044  -0.00140  -0.04906  -0.00798
  11        4YY         0.00475   0.00475   0.00024   0.01379   0.01176
  12        4ZZ         0.00612  -0.00986   0.00085   0.03301  -0.00391
  13        4XY        -0.01469   0.00192   0.00149   0.01475  -0.03757
  14        4XZ        -0.03042  -0.00183   0.00438   0.01227   0.02000
  15        4YZ         0.00787  -0.00958  -0.00042   0.00916   0.00081
  16 2   N  1S          0.00324   0.05670   0.00081   0.06328  -0.00076
  17        2S         -0.00497  -0.11380  -0.00173  -0.06540   0.00176
  18        2PX        -0.07329  -0.00152  -0.03606   0.38637  -0.02309
  19        2PY        -0.16024  -0.00567  -0.13955  -0.06364  -0.21368
  20        2PZ        -0.29584  -0.00780  -0.27054  -0.03531   0.12564
  21        3S         -0.05963  -0.71532  -0.02615  -1.98075   0.00030
  22        3PX        -0.13289   0.13026  -0.11415   1.63809  -0.00973
  23        3PY        -0.30106  -0.03523  -0.39812  -0.27766   0.06008
  24        3PZ        -0.54652  -0.02903  -0.79821  -0.15679  -0.04042
  25        4XX         0.01154   0.01932  -0.00765   0.02101   0.01083
  26        4YY        -0.00406   0.00855   0.00340   0.02535  -0.01805
  27        4ZZ        -0.00544  -0.00212   0.00502   0.00861   0.00693
  28        4XY         0.01499  -0.00322  -0.00941  -0.00038   0.05977
  29        4XZ         0.03282  -0.00389  -0.02310  -0.00343  -0.03038
  30        4YZ        -0.00744  -0.00599   0.00505  -0.01530  -0.00121
  31 3   H  1S          0.09739  -0.12789  -0.05994   0.04010   0.00155
  32        2S          0.75762  -1.25713  -1.45703   0.36572   0.00630
  33 4   H  1S         -0.09042  -0.12770   0.06247   0.04643  -0.00083
  34        2S         -0.68824  -1.26826   1.49495   0.19828  -0.00816
  35 5   H  1S         -0.13950   0.04593  -0.01597  -0.06943   0.00181
  36        2S         -0.97017   0.31013  -0.96183  -0.56150   0.01308
  37 6   H  1S          0.14720   0.04831   0.00884  -0.07003   0.00049
  38        2S          1.04995   0.35944   0.89945  -0.62217  -0.01038
                          16        17        18        19        20
                           V         V         V         V         V
     Eigenvalues --     0.27714   0.32071   0.38308   0.44181   0.45015
   1 1   C  1S         -0.02310  -0.00107  -0.06151  -0.00292   0.06126
   2        2S          0.44203  -0.02480  -0.81449   0.01183  -0.21238
   3        2PX         0.91613  -0.09824   0.09512   0.04485  -0.23007
   4        2PY        -0.17309  -0.24038  -0.00667   0.26148   0.04683
   5        2PZ        -0.08648  -0.49694   0.01073  -0.13233   0.00734
   6        3S          0.43110  -0.01885   1.57808  -0.06155   1.13168
   7        3PX        -0.64973   0.16434  -0.50728  -0.11401   0.73186
[...]
  29        4XZ        -0.00018  -0.00012   0.00050   0.00157
  30        4YZ        -0.00018   0.00056  -0.00015  -0.00016   0.00070
  31 3   H  1S          0.00186   0.00244  -0.00524  -0.01034   0.00255
  32        2S          0.00139   0.00219  -0.00269  -0.00559   0.00180
  33 4   H  1S         -0.00136  -0.00161   0.00410   0.00987  -0.00220
  34        2S         -0.00049  -0.00011   0.00282   0.00602  -0.00090
  35 5   H  1S         -0.00011   0.00825  -0.00461  -0.00844   0.00902
  36        2S          0.00114   0.00236  -0.00205  -0.00429   0.00189
  37 6   H  1S         -0.00334   0.00398   0.00563   0.01247   0.00417
  38        2S         -0.00035   0.00046   0.00258   0.00508  -0.00030
                          31        32        33        34        35
  31 3   H  1S          0.20561
  32        2S          0.09304   0.04627
  33 4   H  1S         -0.03849  -0.03497   0.20646
  34        2S         -0.03519  -0.02186   0.09443   0.04748
  35 5   H  1S          0.03544   0.03146  -0.02661  -0.01453   0.19024
  36        2S          0.03508   0.02200  -0.01803  -0.01023   0.05333
  37 6   H  1S         -0.02590  -0.01449   0.03581   0.03219  -0.04222
  38        2S         -0.01761  -0.01005   0.03594   0.02264  -0.02883
                          36        37        38
  36        2S          0.02167
  37 6   H  1S         -0.02895   0.19077
  38        2S         -0.01166   0.05348   0.02190
    Full Mulliken population analysis:
                           1         2         3         4         5
   1 1   C  1S          2.05358
   2        2S         -0.01652   0.36315
   3        2PX         0.00000   0.00000   0.42382
   4        2PY         0.00000   0.00000   0.00000   0.27969
   5        2PZ         0.00000   0.00000   0.00000   0.00000   0.44825
   6        3S         -0.02778   0.22250   0.00000   0.00000   0.00000
   7        3PX         0.00000   0.00000   0.05097   0.00000   0.00000
   8        3PY         0.00000   0.00000   0.00000   0.07322   0.00000
   9        3PZ         0.00000   0.00000   0.00000   0.00000   0.11371
  10        4XX        -0.00143   0.00003   0.00000   0.00000   0.00000
  11        4YY        -0.00103  -0.01031   0.00000   0.00000   0.00000
  12        4ZZ        -0.00165   0.00191   0.00000   0.00000   0.00000
  13        4XY         0.00000   0.00000   0.00000   0.00000   0.00000
  14        4XZ         0.00000   0.00000   0.00000   0.00000   0.00000
  15        4YZ         0.00000   0.00000   0.00000   0.00000   0.00000
  16 2   N  1S          0.00000  -0.00057  -0.00310  -0.00010  -0.00004
  17        2S         -0.00036   0.01022   0.04468   0.00143   0.00051
  18        2PX        -0.00215   0.04048   0.09448   0.00645   0.00095
  19        2PY        -0.00007   0.00128   0.00668   0.02319   0.00104
  20        2PZ        -0.00003   0.00052   0.00092   0.00113   0.00769
  21        3S         -0.00019   0.00101   0.04431   0.00140   0.00045
  22        3PX        -0.00404   0.03636   0.02873   0.00383   0.00009
  23        3PY        -0.00012   0.00111   0.00404   0.04387   0.00091
  24        3PZ        -0.00005   0.00046   0.00003   0.00101   0.00788
  25        4XX        -0.00041   0.00343  -0.00033   0.00054   0.00035
  26        4YY         0.00001  -0.00043  -0.00077   0.00006  -0.00003
  27        4ZZ         0.00001  -0.00063  -0.00119  -0.00006   0.00004
  28        4XY        -0.00003   0.00023   0.00045   0.00208  -0.00005
  29        4XZ        -0.00001   0.00011   0.00028  -0.00005   0.00356
  30        4YZ         0.00000  -0.00001  -0.00001   0.00004   0.00014
  31 3   H  1S         -0.00214   0.03647   0.01141   0.02045   0.07075
  32        2S         -0.00093   0.01378   0.00412   0.00765   0.02613
  33 4   H  1S         -0.00213   0.03616   0.03897   0.00790   0.05657
  34        2S         -0.00091   0.01356   0.01443   0.00303   0.02101
  35 5   H  1S          0.00000  -0.00041  -0.00095  -0.00018  -0.00038
  36        2S          0.00007  -0.00127  -0.00353  -0.00119  -0.00262
  37 6   H  1S          0.00000  -0.00040  -0.00139   0.00000  -0.00015
  38        2S          0.00007  -0.00122  -0.00620  -0.00006  -0.00124
                           6         7         8         9        10
   6        3S          0.25588
   7        3PX         0.00000   0.02406
   8        3PY         0.00000   0.00000   0.06095
   9        3PZ         0.00000   0.00000   0.00000   0.09213
  10        4XX        -0.00410   0.00000   0.00000   0.00000   0.00160
  11        4YY        -0.00465   0.00000   0.00000   0.00000  -0.00016
  12        4ZZ         0.00663   0.00000   0.00000   0.00000  -0.00036
  13        4XY         0.00000   0.00000   0.00000   0.00000   0.00000
  14        4XZ         0.00000   0.00000   0.00000   0.00000   0.00000
  15        4YZ         0.00000   0.00000   0.00000   0.00000   0.00000
  16 2   N  1S          0.00088  -0.00049  -0.00001   0.00000  -0.00040
  17        2S         -0.01384   0.00483   0.00012  -0.00002   0.00535
  18        2PX         0.00809   0.00637   0.00122  -0.00026   0.00435
  19        2PY         0.00025   0.00135   0.02252   0.00047   0.00104
  20        2PZ         0.00013  -0.00029   0.00052   0.00084   0.00034
  21        3S         -0.04642   0.00713   0.00017  -0.00007   0.00587
  22        3PX         0.00574   0.00086   0.00133  -0.00050   0.00192
  23        3PY         0.00013   0.00152   0.04471   0.00065   0.00070
  24        3PZ         0.00011  -0.00056   0.00073  -0.00248   0.00020
  25        4XX         0.00248  -0.00065   0.00024   0.00017   0.00014
  26        4YY        -0.00009   0.00004  -0.00009  -0.00004  -0.00009
  27        4ZZ        -0.00073  -0.00056  -0.00006  -0.00006  -0.00005
  28        4XY         0.00005   0.00002   0.00091  -0.00001   0.00000
  29        4XZ         0.00003   0.00002  -0.00001   0.00152  -0.00005
  30        4YZ        -0.00001   0.00000   0.00002   0.00006   0.00000
  31 3   H  1S          0.05298   0.00336   0.01239   0.04423  -0.00142
  32        2S          0.02956   0.00117   0.00730   0.02605  -0.00180
  33 4   H  1S          0.05227   0.01792   0.00572   0.03698  -0.00056
  34        2S          0.02915   0.00936   0.00363   0.02230  -0.00043
  35 5   H  1S         -0.00208  -0.00165  -0.00139  -0.00344  -0.00006
  36        2S          0.00135  -0.00120  -0.00209  -0.00516  -0.00045
  37 6   H  1S         -0.00200  -0.00457  -0.00011  -0.00180   0.00011
  38        2S          0.00156  -0.00549  -0.00019  -0.00285  -0.00003
                          11        12        13        14        15
  11        4YY         0.00104
  12        4ZZ         0.00018   0.00160
  13        4XY         0.00000   0.00000   0.00160
  14        4XZ         0.00000   0.00000   0.00000   0.00214
  15        4YZ         0.00000   0.00000   0.00000   0.00000   0.00068
  16 2   N  1S          0.00001   0.00001  -0.00004  -0.00002   0.00000
  17        2S         -0.00053  -0.00076   0.00043   0.00020  -0.00001
  18        2PX        -0.00129  -0.00167   0.00118   0.00047  -0.00001
  19        2PY         0.00017  -0.00004   0.00369   0.00007   0.00005
  20        2PZ        -0.00001   0.00007   0.00006   0.00396   0.00013
  21        3S         -0.00122  -0.00267   0.00019   0.00010  -0.00001
  22        3PX        -0.00187  -0.00312   0.00016   0.00006   0.00000
  23        3PY        -0.00024  -0.00006   0.00310   0.00002   0.00004
  24        3PZ         0.00001  -0.00009   0.00002   0.00298   0.00009
  25        4XX        -0.00008  -0.00002   0.00000  -0.00006   0.00000
  26        4YY         0.00002   0.00001   0.00001   0.00001   0.00000
  27        4ZZ         0.00002   0.00004   0.00000  -0.00001   0.00000
  28        4XY         0.00001   0.00001   0.00008   0.00003  -0.00001
  29        4XZ         0.00001   0.00000   0.00003  -0.00042  -0.00003
  30        4YZ         0.00000   0.00000  -0.00001  -0.00003   0.00001
  31 3   H  1S         -0.00018   0.00344   0.00030   0.00139   0.00204
  32        2S          0.00039   0.00197   0.00004   0.00021   0.00019
  33 4   H  1S         -0.00059   0.00193   0.00060   0.00379   0.00053
  34        2S         -0.00026   0.00113   0.00008   0.00050   0.00003
  35 5   H  1S          0.00002   0.00003   0.00006   0.00018   0.00002
  36        2S          0.00018   0.00032   0.00005   0.00020   0.00003
  37 6   H  1S          0.00000   0.00000   0.00001   0.00013   0.00000
  38        2S          0.00004   0.00012   0.00001   0.00018   0.00000
                          16        17        18        19        20
  16 2   N  1S          2.05798
  17        2S         -0.02638   0.40586
  18        2PX         0.00000   0.00000   0.52633
  19        2PY         0.00000   0.00000   0.00000   0.55456
  20        2PZ         0.00000   0.00000   0.00000   0.00000   0.55382
  21        3S         -0.03037   0.31131   0.00000   0.00000   0.00000
  22        3PX         0.00000   0.00000   0.11873   0.00000   0.00000
  23        3PY         0.00000   0.00000   0.00000   0.18147   0.00000
  24        3PZ         0.00000   0.00000   0.00000   0.00000   0.16573
  25        4XX        -0.00094   0.00238   0.00000   0.00000   0.00000
  26        4YY        -0.00064  -0.00606   0.00000   0.00000   0.00000
  27        4ZZ        -0.00098   0.00345   0.00000   0.00000   0.00000
  28        4XY         0.00000   0.00000   0.00000   0.00000   0.00000
  29        4XZ         0.00000   0.00000   0.00000   0.00000   0.00000
  30        4YZ         0.00000   0.00000   0.00000   0.00000   0.00000
  31 3   H  1S          0.00000  -0.00012  -0.00025  -0.00006  -0.00015
  32        2S          0.00009  -0.00151  -0.00260  -0.00055  -0.00139
  33 4   H  1S          0.00000  -0.00014  -0.00042   0.00000  -0.00008
  34        2S          0.00009  -0.00155  -0.00413  -0.00001  -0.00065
  35 5   H  1S         -0.00179   0.02982   0.01160   0.02066   0.06068
  36        2S          0.00009  -0.00219   0.00236   0.00404   0.01244
  37 6   H  1S         -0.00180   0.02997   0.04063   0.00820   0.04483
  38        2S          0.00010  -0.00236   0.00822   0.00153   0.00915
                          21        22        23        24        25
  21        3S          0.40857
  22        3PX         0.00000   0.10057
  23        3PY         0.00000   0.00000   0.22223
  24        3PZ         0.00000   0.00000   0.00000   0.18666
  25        4XX         0.00187   0.00000   0.00000   0.00000   0.00062
  26        4YY        -0.00569   0.00000   0.00000   0.00000  -0.00004
  27        4ZZ         0.00508   0.00000   0.00000   0.00000  -0.00002
  28        4XY         0.00000   0.00000   0.00000   0.00000   0.00000
  29        4XZ         0.00000   0.00000   0.00000   0.00000   0.00000
  30        4YZ         0.00000   0.00000   0.00000   0.00000   0.00000
  31 3   H  1S         -0.00257  -0.00215  -0.00089  -0.00261  -0.00001
  32        2S         -0.00416  -0.00487  -0.00161  -0.00474  -0.00018
  33 4   H  1S         -0.00285  -0.00442  -0.00005  -0.00148   0.00016
  34        2S         -0.00446  -0.00910  -0.00006  -0.00256   0.00040
  35 5   H  1S          0.05288   0.00802   0.01901   0.05809  -0.00071
  36        2S         -0.00069   0.00239   0.00604   0.01982  -0.00076
  37 6   H  1S          0.05247   0.03316   0.00821   0.04388   0.00115
  38        2S         -0.00143   0.01057   0.00259   0.01516   0.00059
                          26        27        28        29        30
  26        4YY         0.00044
  27        4ZZ         0.00005   0.00077
  28        4XY         0.00000   0.00000   0.00073
  29        4XZ         0.00000   0.00000   0.00000   0.00157
  30        4YZ         0.00000   0.00000   0.00000   0.00000   0.00070
  31 3   H  1S          0.00001   0.00002   0.00005   0.00015   0.00002
  32        2S          0.00012   0.00021   0.00008   0.00026   0.00004
  33 4   H  1S          0.00000  -0.00001   0.00000   0.00012   0.00000
  34        2S         -0.00004  -0.00001   0.00001   0.00022   0.00000
  35 5   H  1S         -0.00002   0.00310   0.00050   0.00155   0.00218
  36        2S          0.00045   0.00100   0.00005   0.00016   0.00009
  37 6   H  1S         -0.00058   0.00125   0.00071   0.00361   0.00054
  38        2S         -0.00013   0.00019   0.00007   0.00030  -0.00001
                          31        32        33        34        35
  31 3   H  1S          0.20561
  32        2S          0.06124   0.04627
  33 4   H  1S         -0.00043  -0.00426   0.20646
  34        2S         -0.00429  -0.00775   0.06216   0.04748
  35 5   H  1S          0.00000   0.00032  -0.00003  -0.00074   0.19024
  36        2S          0.00036   0.00169  -0.00092  -0.00211   0.03511
  37 6   H  1S         -0.00003  -0.00069   0.00000   0.00035  -0.00091
  38        2S         -0.00084  -0.00199   0.00039   0.00180  -0.00457
                          36        37        38
  36        2S          0.02167
  37 6   H  1S         -0.00459   0.19077
  38        2S         -0.00487   0.03521   0.02190
     Gross orbital populations:
                           1
   1 1   C  1S          1.99174
   2        2S          0.75101
   3        2PX         0.75086
   4        2PY         0.47531
   5        2PZ         0.75551
   6        3S          0.56806
   7        3PX         0.11353
   8        3PY         0.23175
   9        3PZ         0.32242
  10        4XX         0.01026
  11        4YY        -0.02034
  12        4ZZ         0.00894
  13        4XY         0.01166
  14        4XZ         0.01609
  15        4YZ         0.00375
  16 2   N  1S          1.99161
  17        2S          0.79470
  18        2PX         0.85912
  19        2PY         0.83152
  20        2PZ         0.86038
  21        3S          0.79001
  22        3PX         0.32243
  23        3PY         0.53731
  24        3PZ         0.48829
  25        4XX         0.01028
  26        4YY        -0.01354
  27        4ZZ         0.01088
  28        4XY         0.00598
  29        4XZ         0.01292
  30        4YZ         0.00376
  31 3   H  1S          0.50853
  32        2S          0.18986
  33 4   H  1S          0.51024
  34        2S          0.19161
  35 5   H  1S          0.47478
  36        2S          0.07634
  37 6   H  1S          0.47616
  38        2S          0.07628
          Condensed to atoms (all electrons):
               1          2          3          4          5          6
     1  C    4.812458   0.485151   0.371302   0.372632  -0.025520  -0.025461
     2  N    0.485151   6.459294  -0.029379  -0.031044   0.310870   0.310758
     3  H    0.371302  -0.029379   0.374370  -0.016733   0.002380  -0.003549
     4  H    0.372632  -0.031044  -0.016733   0.378254  -0.003801   0.002542
     5  H   -0.025520   0.310870   0.002380  -0.003801   0.282130  -0.014941
     6  H   -0.025461   0.310758  -0.003549   0.002542  -0.014941   0.283082
 Mulliken charges:
               1
     1  C    0.009438
     2  N   -0.505649
     3  H    0.301610
     4  H    0.298151
     5  H    0.448883
     6  H    0.447568
 Sum of Mulliken charges =   1.00000
 Mulliken charges with hydrogens summed into heavy atoms:
               1
     1  C    0.609199
     2  N    0.390801
 Electronic spatial extent (au):  <R**2>=            252.5669
 Charge=              1.0000 electrons
 Dipole moment (field-independent basis, Debye):
    X=             -8.0668    Y=              1.2014    Z=              0.6055  Tot=              8.1782
 Quadrupole moment (field-independent basis, Debye-Ang):
   XX=              8.6461   YY=            -10.6640   ZZ=             -8.0305
   XY=             -2.9194   XZ=             -1.0690   YZ=              2.2622
 Traceless Quadrupole moment (field-independent basis, Debye-Ang):
   XX=             11.9956   YY=             -7.3145   ZZ=             -4.6811
   XY=             -2.9194   XZ=             -1.0690   YZ=              2.2622
 Octapole moment (field-independent basis, Debye-Ang**2):
  XXX=              6.4607  YYY=             -8.8534  ZZZ=             -3.7316  XYY=             18.9631
  XXY=              5.1264  XXZ=              1.3715  XZZ=             15.1457  YZZ=             -1.8506
  YYZ=             -0.6346  XYZ=             -3.5427
 Hexadecapole moment (field-independent basis, Debye-Ang**3):
 XXXX=           -114.3216 YYYY=            -17.6130 ZZZZ=            -15.4846 XXXY=             -2.8168
 XXXZ=              3.3071 YYYX=             18.3718 YYYZ=             -2.4193 ZZZX=              7.2363
 ZZZY=             -0.9627 XXYY=            -43.1959 XXZZ=            -34.2406 YYZZ=             -4.6972
 XXYZ=              7.1478 YYXZ=              0.9358 ZZXY=              3.4241
 N-N= 3.855094009098D+01 E-N=-2.923642337988D+02  KE= 9.397748397054D+01
 Orbital energies and kinetic energies (alpha):
                                 1                 2
   1         O               -14.690324         21.955454
   2         O               -10.547949         15.880537
   3         O                -1.245933          2.011675
   4         O                -0.951956          1.641659
   5         O                -0.848140          1.309238
   6         O                -0.787616          1.472077
   7         O                -0.683967          1.227932
   8         O                -0.651416          1.490170
   9         V                -0.320330          1.587060
  10         V                -0.168629          1.122843
  11         V                -0.134665          1.043447
  12         V                -0.102480          1.170656
  13         V                -0.014916          1.105961
  14         V                 0.036936          1.415268
  15         V                 0.275723          1.981274
  16         V                 0.277144          2.183391
  17         V                 0.320708          1.666760
  18         V                 0.383079          1.609841
  19         V                 0.441814          2.638831
  20         V                 0.450155          2.336014
  21         V                 0.557812          2.393802
  22         V                 0.617032          3.182293
  23         V                 0.623618          2.936430
  24         V                 0.669108          2.458748
  25         V                 0.938103          2.274832
  26         V                 1.083348          2.516478
  27         V                 1.146289          2.698106
  28         V                 1.186544          2.637199
  29         V                 1.502213          2.993596
  30         V                 1.588774          3.124310
  31         V                 1.728166          3.490725
  32         V                 1.871305          3.709314
  33         V                 2.048479          3.724228
  34         V                 2.104024          3.671736
  35         V                 2.382258          4.866569
  36         V                 2.422193          4.226853
  37         V                 3.461232          9.901669
  38         V                 3.808218          9.915533
 Total kinetic energy from orbitals= 9.397748397054D+01

 Test job not archived.
 1\1\GINC-EAM\SP\RB3LYP TD-FC\Gen\C1H4N1(1+)\DULIKAI\30-Apr-2014\0\\# t
 d(singlet, root=0, nstates=2) b3lyp/ChkBasis scf=(tight,maxcycle=10000
 ) iop(9/40=20) nosymm pop=full geom=AllCheck Guess=Read\\[0] [0]\\1,1\
 C,-2.4296568,0.3811852,0.2130064\N,-1.174652,0.1559854,0.0725588\H,-2.
 8056585,0.8622392,1.1152199\H,-3.1009308,0.0892632,-0.5922419\H,-0.804
 2914,-0.3306266,-0.749091\H,-0.4951867,0.4609797,0.7721549\\Version=EM
 64L-G09RevD.01\HF=-94.9738115\RMSD=7.110e-10\PG=C01 [X(C1H4N1)]\\@


 HEAVEN'S NET CASTS WIDE.
 THOUGH ITS MESHES ARE COARSE, NOTHING SLIPS THROUGH.

                                          -- LAO-TSU
 Job cpu time:       0 days  0 hours  0 minutes 11.1 seconds.
 File lengths (MBytes):  RWF=      5 Int=      0 D2E=      0 Chk=      1 Scr=      1
 Normal termination of Gaussian 09 at Wed Apr 30 11:40:43 2014.
