 Entering Gaussian System, Link 0=g09
 Input=x.gjf
 Output=x.log
 Initial command:
 /opt/g09_D01_em64t/g09/l1.exe "/tmp/Gau-7249.inp" -scrdir="/tmp/"
 Entering Link 1 = /opt/g09_D01_em64t/g09/l1.exe PID=      7250.
  
 Copyright (c) 1988,1990,1992,1993,1995,1998,2003,2009,2013,
            Gaussian, Inc.  All Rights Reserved.
  
 This is part of the Gaussian(R) 09 program.  It is based on
 the Gaussian(R) 03 system (copyright 2003, Gaussian, Inc.),
 the Gaussian(R) 98 system (copyright 1998, Gaussian, Inc.),
 the Gaussian(R) 94 system (copyright 1995, Gaussian, Inc.),
 the Gaussian 92(TM) system (copyright 1992, Gaussian, Inc.),
 the Gaussian 90(TM) system (copyright 1990, Gaussian, Inc.),
 the Gaussian 88(TM) system (copyright 1988, Gaussian, Inc.),
 the Gaussian 86(TM) system (copyright 1986, Carnegie Mellon
 University), and the Gaussian 82(TM) system (copyright 1983,
 Carnegie Mellon University). Gaussian is a federally registered
 trademark of Gaussian, Inc.
  
 This software contains proprietary and confidential information,
 including trade secrets, belonging to Gaussian, Inc.
  
 This software is provided under written license and may be
 used, copied, transmitted, or stored only in accord with that
 written license.
  
 The following legend is applicable only to US Government
 contracts under FAR:
  
                    RESTRICTED RIGHTS LEGEND
  
 Use, reproduction and disclosure by the US Government is
 subject to restrictions as set forth in subparagraphs (a)
 and (c) of the Commercial Computer Software - Restricted
 Rights clause in FAR 52.227-19.
  
 Gaussian, Inc.
 340 Quinnipiac St., Bldg. 40, Wallingford CT 06492
  
  
 ---------------------------------------------------------------
 Warning -- This program may not be used in any manner that
 competes with the business of Gaussian, Inc. or will provide
 assistance to any competitor of Gaussian, Inc.  The licensee
 of this program is prohibited from giving any competitor of
 Gaussian, Inc. access to this program.  By using this program,
 the user acknowledges that Gaussian, Inc. is engaged in the
 business of creating and licensing software in the field of
 computational chemistry and represents and warrants to the
 licensee that it is not a competitor of Gaussian, Inc. and that
 it will not use this program in any manner prohibited above.
 ---------------------------------------------------------------
  

 Cite this work as:
 Gaussian 09, Revision D.01,
 M. J. Frisch, G. W. Trucks, H. B. Schlegel, G. E. Scuseria, 
 M. A. Robb, J. R. Cheeseman, G. Scalmani, V. Barone, B. Mennucci, 
 G. A. Petersson, H. Nakatsuji, M. Caricato, X. Li, H. P. Hratchian, 
 A. F. Izmaylov, J. Bloino, G. Zheng, J. L. Sonnenberg, M. Hada, 
 M. Ehara, K. Toyota, R. Fukuda, J. Hasegawa, M. Ishida, T. Nakajima, 
 Y. Honda, O. Kitao, H. Nakai, T. Vreven, J. A. Montgomery, Jr., 
 J. E. Peralta, F. Ogliaro, M. Bearpark, J. J. Heyd, E. Brothers, 
 K. N. Kudin, V. N. Staroverov, T. Keith, R. Kobayashi, J. Normand, 
 K. Raghavachari, A. Rendell, J. C. Burant, S. S. Iyengar, J. Tomasi, 
 M. Cossi, N. Rega, J. M. Millam, M. Klene, J. E. Knox, J. B. Cross, 
 V. Bakken, C. Adamo, J. Jaramillo, R. Gomperts, R. E. Stratmann, 
 O. Yazyev, A. J. Austin, R. Cammi, C. Pomelli, J. W. Ochterski, 
 R. L. Martin, K. Morokuma, V. G. Zakrzewski, G. A. Voth, 
 P. Salvador, J. J. Dannenberg, S. Dapprich, A. D. Daniels, 
 O. Farkas, J. B. Foresman, J. V. Ortiz, J. Cioslowski, 
 and D. J. Fox, Gaussian, Inc., Wallingford CT, 2013.
 
 ******************************************
 Gaussian 09:  EM64L-G09RevD.01 24-Apr-2013
                25-Jul-2014 
 ******************************************
 %mem=1GB
 %nprocshared=1
 Will use up to    1 processors via shared memory.
 %chk=scan.chk
 ----------------------------------------------
 # MP2/genecp scf=(tight,maxcycle=10000) nosymm
 ----------------------------------------------
 1/38=1/1;
 2/12=2,15=1,17=6,18=5,40=1/2;
 3/5=7,11=9,16=1,17=8,25=1,30=1/1,2,3;
 4//1;
 5/5=2,7=10000,32=2,38=5/2;
 8/10=1/1;
 9/16=-3/6;
 6/7=2,8=2,9=2,10=2/1;
 99/5=1,9=1/99;
 -------
 [0] [0]
 -------
 Symbolic Z-matrix:
 Charge =  0 Multiplicity = 1
 c                     3.27886   6.0019   -0.04618    
 c                     2.84421   4.87813   0.05307    
 c                     2.1087    3.56644   0.00912    
 c                     0.94093   3.42837  -0.84101    
 c                     2.56006   2.5297    0.75229    
 c                     0.27038   2.28923  -0.84451    
 h                     0.58416   4.49726  -1.16392    
 c                     1.87718   1.31893   0.7562     
 h                     3.32959   2.72042   1.2592     
 c                     0.69663   1.21276   0.05366    
 h                    -0.62869   2.19328  -1.42992    
 h                     2.25543   0.60282   1.26749    
 n                     0.01592   0.02893  -0.07443    
 c                     0.65947  -1.2166   -0.0072     
 c                     0.19625  -2.3326    0.79734    
 c                     1.87751  -1.41788  -0.673      
 c                     0.92753  -3.54072   0.73132    
 h                    -0.78011  -2.16988   1.25594    
 c                     2.63309  -2.56899  -0.72356    
 h                     2.05118  -0.54916  -1.2807     
 c                     2.09952  -3.64551   0.05156    
 c                     2.78761  -4.87271   0.0226     
 h                     3.60658  -2.61455  -1.16123    
 c                     3.43001  -5.9407    0.0608     
 c                    -1.40649   0.1006   -0.09538    
 c                    -2.14569   0.82626   0.84408    
 c                    -2.13132  -0.72592  -0.96171    
 c                    -3.50195   0.81078   0.91958    
 h                    -1.50801   1.57937   1.43712    
 c                    -3.48516  -0.73691  -0.91851    
 h                    -1.44848  -1.36409  -1.68786    
 c                    -4.18869   0.02722   0.07501    
 h                    -4.01813   1.50025   1.59561    
 h                    -3.82345  -1.37614  -1.54693    
 c                    -5.58051   0.00928   0.04558    
 c                    -6.78515  -0.07052   0.06274    
 h                     0.51785  -4.53321   1.14826    
 h                     3.82804   6.7491   -0.23364    
 h                     4.04124  -6.81186  -0.0312     
 h                    -7.78739   0.00208   0.13025    
 
                          Input orientation:                          
 ---------------------------------------------------------------------
 Center     Atomic      Atomic             Coordinates (Angstroms)
 Number     Number       Type             X           Y           Z
 ---------------------------------------------------------------------
      1          6           0        3.278862    6.001904   -0.046183
      2          6           0        2.844209    4.878127    0.053072
      3          6           0        2.108696    3.566441    0.009120
      4          6           0        0.940930    3.428374   -0.841012
      5          6           0        2.560056    2.529702    0.752293
      6          6           0        0.270383    2.289227   -0.844512
      7          1           0        0.584155    4.497264   -1.163923
      8          6           0        1.877179    1.318930    0.756202
      9          1           0        3.329586    2.720421    1.259203
     10          6           0        0.696634    1.212760    0.053656
     11          1           0       -0.628693    2.193276   -1.429916
     12          1           0        2.255431    0.602816    1.267489
     13          7           0        0.015921    0.028926   -0.074428
     14          6           0        0.659472   -1.216598   -0.007202
     15          6           0        0.196248   -2.332605    0.797342
     16          6           0        1.877506   -1.417876   -0.673002
     17          6           0        0.927526   -3.540720    0.731318
     18          1           0       -0.780113   -2.169875    1.255943
     19          6           0        2.633086   -2.568994   -0.723563
     20          1           0        2.051180   -0.549162   -1.280702
     21          6           0        2.099521   -3.645510    0.051557
     22          6           0        2.787610   -4.872707    0.022603
     23          1           0        3.606585   -2.614548   -1.161233
     24          6           0        3.430014   -5.940702    0.060802
     25          6           0       -1.406487    0.100600   -0.095382
     26          6           0       -2.145687    0.826256    0.844079
     27          6           0       -2.131322   -0.725918   -0.961715
     28          6           0       -3.501949    0.810780    0.919578
     29          1           0       -1.508006    1.579375    1.437117
     30          6           0       -3.485157   -0.736913   -0.918511
     31          1           0       -1.448476   -1.364093   -1.687856
     32          6           0       -4.188688    0.027220    0.075008
     33          1           0       -4.018133    1.500250    1.595613
     34          1           0       -3.823453   -1.376136   -1.546934
     35          6           0       -5.580505    0.009282    0.045582
     36          6           0       -6.785146   -0.070523    0.062744
     37          1           0        0.517850   -4.533211    1.148263
     38          1           0        3.828043    6.749096   -0.233638
     39          1           0        4.041244   -6.811856   -0.031198
     40          1           0       -7.787391    0.002081    0.130251
 ---------------------------------------------------------------------
                    Distance matrix (angstroms):
                    1          2          3          4          5
     1  C    0.000000
     2  C    1.208987   0.000000
     3  C    2.702559   1.504470   0.000000
     4  C    3.566614   2.554142   1.451021   0.000000
     5  C    3.634615   2.466728   1.353093   2.442908   0.000000
     6  C    4.844816   3.759340   2.395695   1.321855   2.801824
     7  H    3.282488   2.594991   2.136980   1.172215   3.383396
     8  C    4.953663   3.754653   2.379714   2.806672   1.390074
     9  H    3.531959   2.519135   1.941400   3.258493   0.941014
    10  C    5.441853   4.248175   2.745126   2.401886   2.386372
    11  H    5.629329   4.633435   3.383740   2.082304   3.878574
    12  H    5.650071   4.483275   3.223058   3.762641   2.017701
    13  N    6.806177   5.615178   4.111046   3.605487   3.661964
    14  C    7.679159   6.474749   4.997797   4.727601   4.268936
    15  C    8.926258   7.717531   6.251199   6.035530   5.406630
    16  C    7.576928   6.411034   5.036086   4.938779   4.252143
    17  C    9.858750   8.660870   7.240751   7.144275   6.286145
    18  H    9.216766   8.016043   6.542561   6.220900   5.787610
    19  C    8.621842   7.490483   6.201239   6.232624   5.308501
    20  H    6.778473   5.644760   4.313367   4.152923   3.724437
    21  C    9.719721   8.556105   7.212081   7.223492   6.231883
    22  C   10.885919   9.751046   8.466424   8.547748   7.441767
    23  H    8.694479   7.628625   6.466685   6.612500   5.587496
    24  C   11.944041  10.834680   9.598663   9.735933   8.542994
    25  C    7.535271   6.396501   4.937559   4.140098   4.727850
    26  C    7.550207   6.476296   5.128893   4.374672   5.005415
    27  C    8.681697   7.562474   6.111024   5.168311   5.962039
    28  C    8.594176   7.587349   6.316798   5.448913   6.303221
    29  H    6.683790   5.633748   4.366708   3.821774   4.233348
    30  C    9.587730   8.516662   7.118325   6.078311   7.071561
    31  H    8.905095   7.773241   6.312160   5.421636   6.097893
    32  C    9.564301   8.543619   7.224090   6.222533   7.229570
    33  H    8.729635   7.802642   6.657638   5.852103   6.711448
    34  H   10.350391   9.280815   7.876595   6.803013   7.828870
    35  C   10.696183   9.730442   8.472220   7.416559   8.551064
    36  C   11.754595  10.826528   9.608892   8.529438   9.724683
    37  H   10.956210   9.756263   8.332635   8.217240   7.362890
    38  H    0.946063   2.133227   3.625517   4.442017   4.514768
    39  H   12.836428  11.751412  10.556771  10.729867   9.490652
    40  H   12.589319  11.696695  10.519119   9.426898  10.669839
                    6          7          8          9         10
     6  C    0.000000
     7  H    2.252977   0.000000
     8  C    2.466892   3.931997   0.000000
     9  H    3.737683   4.070148   2.080066   0.000000
    10  C    1.465325   3.504728   1.377871   3.264785   0.000000
    11  H    1.077145   2.617272   3.438457   4.814272   2.217857
    12  H    3.353349   4.885863   0.957763   2.374475   2.067673
    13  N    2.401405   4.634214   2.412124   4.472482   1.371583
    14  C    3.625367   5.830257   2.914532   4.922743   2.430404
    15  C    4.905356   7.116470   4.020066   5.963572   3.656920
    16  C    4.044117   6.074755   3.087513   4.792437   2.973674
    17  C    6.074814   8.265533   4.951632   6.726845   4.807090
    18  H    5.039747   7.222723   4.413922   6.387850   3.881816
    19  C    5.403638   7.370484   4.228126   5.691606   4.319210
    20  H    3.379047   5.256636   2.769300   4.333083   2.592234
    21  C    6.274535   8.371290   5.019126   6.595190   5.056765
    22  C    7.640787   9.698424   6.301065   7.712231   6.434754
    23  H    5.939492   7.727416   4.705279   5.864906   4.959037
    24  C    8.861975  10.888067   7.456349   8.744215   7.657900
    25  C    2.857128   4.943187   3.604440   5.579315   2.383744
    26  C    3.290747   4.996040   4.053875   5.808512   2.975390
    27  C    3.856556   5.890359   4.816712   6.828707   3.575861
    28  C    4.419085   5.884505   5.405546   7.101546   4.305753
    29  H    2.978655   4.433579   3.462795   4.973523   2.628461
    30  C    4.823597   6.634467   5.982124   7.945837   4.715264
    31  H    4.124616   6.225882   4.922602   6.942498   3.778165
    32  C    5.083848   6.655545   6.239173   8.073419   5.027160
    33  H    4.996805   6.146397   5.957532   7.455935   4.968834
    34  H    5.539655   7.353267   6.713048   8.707592   5.449354
    35  C    6.342185   7.720617   7.605078   9.392171   6.391471
    36  C    7.494800   8.756483   8.800417  10.560715   7.591043
    37  H    7.111825   9.322022   6.020718   7.780318   5.852035
    38  H    5.737642   4.056967   5.854259   4.325189   6.367046
    39  H    9.884866  11.879845   8.450613   9.645511   8.694140
    40  H    8.432610   9.589804   9.773935  11.500047   8.570314
                   11         12         13         14         15
    11  H    0.000000
    12  H    4.257197   0.000000
    13  N    2.633873   2.673106   0.000000
    14  C    3.912892   2.735358   1.403569   0.000000
    15  C    5.111243   3.616347   2.523753   1.451668   0.000000
    16  C    4.460311   2.826930   2.432494   1.402644   2.413559
    17  C    6.322299   4.384028   3.771290   2.453326   1.413743
    18  H    5.125803   4.111262   2.690405   2.139317   1.090907
    19  C    5.815269   3.763946   3.744344   2.497458   2.882223
    20  H    3.837310   2.803935   2.435480   2.001031   3.307523
    21  C    6.612815   4.421659   4.225960   2.824324   2.429477
    22  C    7.981796   5.640417   5.631846   4.230484   3.710458
    23  H    6.412873   4.251557   4.589332   3.459989   3.942829
    24  C    9.211783   6.756727   6.878283   5.477014   4.900826
    25  C    2.601008   3.939452   1.424367   2.451729   3.047327
    26  C    3.056316   4.427080   2.480310   3.573073   3.932588
    27  C    3.316444   5.096909   2.442891   2.990049   3.330661
    28  C    3.960684   5.771630   3.738282   4.720870   4.855149
    29  H    3.061036   3.891773   2.647831   3.821188   4.314786
    30  C    4.123947   6.287116   3.681920   4.270660   4.363844
    31  H    3.659707   5.130470   2.586138   2.699963   3.133583
    32  C    4.430594   6.578753   4.207264   5.005847   5.031720
    33  H    4.595913   6.345917   4.607322   5.641832   5.752306
    34  H    4.791752   6.984988   4.345487   4.742662   4.750627
    35  C    5.609578   7.952813   5.597747   6.359472   6.278571
    36  C    6.727164   9.145317   6.803177   7.532644   7.375400
    37  H    7.294326   5.423299   4.749736   3.514979   2.251497
    38  H    6.484525   6.519452   7.727762   8.575744   9.835148
    39  H   10.239976   7.736476   7.937341   6.537879   5.961053
    40  H    7.647379  10.124844   7.806041   8.535430   8.344714
                   16         17         18         19         20
    16  C    0.000000
    17  C    2.716808   0.000000
    18  H    3.368868   2.251773   0.000000
    19  C    1.377871   2.443330   3.965812   0.000000
    20  H    1.074303   3.776274   4.132493   2.174566   0.000000
    21  C    2.353003   1.358906   3.452583   1.429821   3.371145
    22  C    3.639782   2.395074   4.642745   2.426466   4.575366
    23  H    2.158727   3.408357   5.028279   1.068331   2.588315
    24  C    4.837841   3.531565   5.776908   3.552287   5.724467
    25  C    3.663882   4.403438   2.715415   4.882570   3.712498
    26  C    4.850129   5.341146   3.318317   6.068104   4.901037
    27  C    4.078340   4.488432   2.971327   5.114022   4.198371
    28  C    6.036701   6.212186   4.050412   7.194542   6.126004
    29  H    4.989770   5.713610   3.823549   6.247090   4.958328
    30  C    5.411298   5.482248   3.754850   6.389634   5.551348
    31  H    3.477783   4.029330   3.124411   4.363575   3.616280
    32  C    6.280648   6.271889   4.223768   7.342659   6.411406
    33  H    6.958494   7.114628   4.906115   8.134865   7.022096
    34  H    5.767706   5.696285   4.212844   6.617230   5.938525
    35  C    7.627259   7.444946   5.409017   8.643041   7.766177
    36  C    8.797626   8.483783   6.472359   9.775670   8.950676
    37  H    3.856291   1.151831   2.698455   3.440364   4.911580
    38  H    8.408155  10.734265  10.148990   9.407164   7.584072
    39  H    5.847109   4.580065   6.815438   4.523732   6.689017
    40  H    9.801618   9.426691   7.422029  10.766882   9.954503
                   21         22         23         24         25
    21  C    0.000000
    22  C    1.407238   0.000000
    23  H    2.192027   2.677960   0.000000
    24  C    2.652962   1.246898   3.547936   0.000000
    25  C    5.132934   6.506778   5.799910   7.740379   0.000000
    26  C    6.216636   7.582244   6.996359   8.803050   1.398421
    27  C    5.239347   6.508505   6.044030   7.692072   1.399660
    28  C    7.210301   8.524386   8.160508   9.714531   2.434227
    29  H    6.498726   7.879247   7.106296   9.101090   2.132049
    30  C    6.370996   7.572193   7.340111   8.709654   2.387434
    31  H    4.562751   5.760249   5.233986   6.913958   2.164038
    32  C    7.282243   8.525302   8.323070   9.677857   2.788379
    33  H    8.141783   9.455532   9.092199  10.639469   3.411624
    34  H    6.541165   7.641702   7.542406   8.719682   3.182684
    35  C    8.505312   9.688122   9.630343  10.797777   4.177396
    36  C    9.576949  10.709820  10.768391  11.781702   5.383703
    37  H    2.119543   2.556204   4.307589   3.412375   5.169325
    38  H   10.541202  11.671095   9.412083  12.699452   8.462973
    39  H    3.715223   2.309716   4.368443   1.068164   8.801360
    40  H   10.538602  11.644990  11.761690  12.694552   6.385651
                   26         27         28         29         30
    26  C    0.000000
    27  C    2.381248   0.000000
    28  C    1.358450   2.789144   0.000000
    29  H    1.151312   3.384862   2.198726   0.000000
    30  C    2.710056   1.354570   2.402959   3.850104   0.000000
    31  H    3.419711   1.183565   3.968065   4.293367   2.265682
    32  C    2.324604   2.423792   1.341222   3.383871   1.437336
    33  H    2.127234   3.880181   1.094914   2.516371   3.407313
    34  H    3.658193   1.904881   3.312046   4.795926   0.958105
    35  C    3.619809   3.667701   2.393045   4.581137   2.424204
    36  C    4.789497   4.810108   3.505744   5.697304   3.506689
    37  H    5.992566   5.095644   6.690988   6.446024   5.891307
    38  H    8.480976   9.587489   9.503804   7.615172  10.487720
    39  H    9.868383   8.718088  10.766072  10.166753   9.712824
    40  H    5.746097   5.806332   4.431934   6.605031   4.489457
                   31         32         33         34         35
    31  H    0.000000
    32  C    3.542909   0.000000
    33  H    5.058534   2.123946   0.000000
    34  H    2.379184   2.175661   4.264633   0.000000
    35  C    4.686644   1.392244   2.658305   2.746402   0.000000
    36  C    5.763504   2.598326   3.531767   3.614875   1.207404
    37  H    4.685436   6.640851   7.561608   6.006506   7.683754
    38  H    9.786737  10.466463   9.615561  11.237861  11.576866
    39  H    7.909466  10.701215  11.691500   9.679770  11.794569
    40  H    6.734522   3.599214   4.312667   4.519429   2.208521
                   36         37         38         39         40
    36  C    0.000000
    37  H    8.627148   0.000000
    38  H   12.618828  11.838812   0.000000
    39  H   12.754023   4.358630  13.564138   0.000000
    40  H    1.007136   9.517470  13.437742  13.651827   0.000000
 Symmetry turned off by external request.
 Stoichiometry    C24H15N
 Framework group  C1[X(C24H15N)]
 Deg. of freedom   114
 Full point group                 C1      NOp   1
 Rotational constants (GHZ):      0.1884324      0.1858030      0.0978791
 General basis read from cards:  (5D, 7F)
 ======================================================================================================
                                       Pseudopotential Parameters
 ======================================================================================================
  Center     Atomic      Valence      Angular      Power
  Number     Number     Electrons     Momentum     of R      Exponent        Coefficient   SO-Coeffient
 ======================================================================================================
 EOF while reading ECP pointer card.
 Error termination via Lnk1e in /opt/g09_D01_em64t/g09/l301.exe at Fri Jul 25 16:10:05 2014.
 Job cpu time:       0 days  0 hours  0 minutes  0.1 seconds.
 File lengths (MBytes):  RWF=      5 Int=      0 D2E=      0 Chk=      1 Scr=      1
