 Entering Gaussian System, Link 0=g03
 Initial command:
 /opt/g03c02/g03/l1.exe /s1/zhcx/Gau-9404.inp -scrdir=/s1/zhcx/
 Entering Link 1 = /opt/g03c02/g03/l1.exe PID=      9405.
  
 Copyright (c) 1988,1990,1992,1993,1995,1998,2003,2004, Gaussian, Inc.
                  All Rights Reserved.
  
 This is the Gaussian(R) 03 program.  It is based on the
 the Gaussian(R) 98 system (copyright 1998, Gaussian, Inc.),
 the Gaussian(R) 94 system (copyright 1995, Gaussian, Inc.),
 the Gaussian 92(TM) system (copyright 1992, Gaussian, Inc.),
 the Gaussian 90(TM) system (copyright 1990, Gaussian, Inc.),
 the Gaussian 88(TM) system (copyright 1988, Gaussian, Inc.),
 the Gaussian 86(TM) system (copyright 1986, Carnegie Mellon
 University), and the Gaussian 82(TM) system (copyright 1983,
 Carnegie Mellon University). Gaussian is a federally registered
 trademark of Gaussian, Inc.
  
 This software contains proprietary and confidential information,
 including trade secrets, belonging to Gaussian, Inc.
  
 This software is provided under written license and may be
 used, copied, transmitted, or stored only in accord with that
 written license.
  
 The following legend is applicable only to US Government
 contracts under FAR:
  
                    RESTRICTED RIGHTS LEGEND
  
 Use, reproduction and disclosure by the US Government is
 subject to restrictions as set forth in subparagraphs (a)
 and (c) of the Commercial Computer Software - Restricted
 Rights clause in FAR 52.227-19.
  
 Gaussian, Inc.
 340 Quinnipiac St., Bldg. 40, Wallingford CT 06492
  
  
 ---------------------------------------------------------------
 Warning -- This program may not be used in any manner that
 competes with the business of Gaussian, Inc. or will provide
 assistance to any competitor of Gaussian, Inc.  The licensee
 of this program is prohibited from giving any competitor of
 Gaussian, Inc. access to this program.  By using this program,
 the user acknowledges that Gaussian, Inc. is engaged in the
 business of creating and licensing software in the field of
 computational chemistry and represents and warrants to the
 licensee that it is not a competitor of Gaussian, Inc. and that
 it will not use this program in any manner prohibited above.
 ---------------------------------------------------------------
  

 Cite this work as:
 Gaussian 03, Revision C.02,
 M. J. Frisch, G. W. Trucks, H. B. Schlegel, G. E. Scuseria, 
 M. A. Robb, J. R. Cheeseman, J. A. Montgomery, Jr., T. Vreven, 
 K. N. Kudin, J. C. Burant, J. M. Millam, S. S. Iyengar, J. Tomasi, 
 V. Barone, B. Mennucci, M. Cossi, G. Scalmani, N. Rega, 
 G. A. Petersson, H. Nakatsuji, M. Hada, M. Ehara, K. Toyota, 
 R. Fukuda, J. Hasegawa, M. Ishida, T. Nakajima, Y. Honda, O. Kitao, 
 H. Nakai, M. Klene, X. Li, J. E. Knox, H. P. Hratchian, J. B. Cross, 
 C. Adamo, J. Jaramillo, R. Gomperts, R. E. Stratmann, O. Yazyev, 
 A. J. Austin, R. Cammi, C. Pomelli, J. W. Ochterski, P. Y. Ayala, 
 K. Morokuma, G. A. Voth, P. Salvador, J. J. Dannenberg, 
 V. G. Zakrzewski, S. Dapprich, A. D. Daniels, M. C. Strain, 
 O. Farkas, D. K. Malick, A. D. Rabuck, K. Raghavachari, 
 J. B. Foresman, J. V. Ortiz, Q. Cui, A. G. Baboul, S. Clifford, 
 J. Cioslowski, B. B. Stefanov, G. Liu, A. Liashenko, P. Piskorz, 
 I. Komaromi, R. L. Martin, D. J. Fox, T. Keith, M. A. Al-Laham, 
 C. Y. Peng, A. Nanayakkara, M. Challacombe, P. M. W. Gill, 
 B. Johnson, W. Chen, M. W. Wong, C. Gonzalez, and J. A. Pople, 
 Gaussian, Inc., Wallingford CT, 2004.
 
 ******************************************
 Gaussian 03:  IA64L-G03RevC.02 12-Jun-2004
                20-Mar-2010 
 ******************************************
 %nproc=4
 Will use up to    4 processors via shared memory.
 %chk=pathI-ts1-170-105-160-freq.chk
 %mem=30MW
 -------------------------------------------------
 #p freq b3lyp/gen pseudo=read iop(1/8=8) scfcon=6
 -------------------------------------------------
 1/8=8,10=4,30=1,38=1/1,3;
 2/17=6,18=5,40=1/2;
 3/5=7,11=2,16=1,17=8,25=1,30=1,74=-5/1,2,3;
 4//1;
 5/5=2,6=6,38=5/2;
 8/6=4,10=90,11=11/1;
 11/6=1,8=1,9=11,15=111,16=1/1,2,10;
 10/6=1/2;
 6/7=2,8=2,9=2,10=2,18=1,28=1/1;
 7/8=1,10=1,25=1/1,2,3,16;
 1/8=8,10=4,30=1/3;
 99//99;
 Leave Link    1 at Sat Mar 20 14:02:52 2010, MaxMem=   31457280 cpu:       0.0
 (Enter /opt/g03c02/g03/l101.exe)
 -------------------
 Title Card Required
 -------------------
 Symbolic Z-matrix:
 Charge = -1 Multiplicity = 1
 W                     0.05878   0.74156  -0.10427 
 S                     1.3551   -0.58981   1.61989 
 C                     2.87091  -0.96275   0.8596 
 C                     3.18063  -0.55229  -0.4177 
 S                     2.09595   0.47466  -1.34216 
 C                     3.79738  -1.73696   1.62673 
 N                     4.53265  -2.36026   2.28107 
 C                     4.41941  -0.87538  -1.0441 
 N                     5.4214   -1.11298  -1.59112 
 S                    -1.98725   0.18828   1.42898 
 C                    -2.93904  -0.95607   0.51437 
 C                    -2.48645  -1.5216   -0.65246 
 S                    -0.92037  -1.15837  -1.36249 
 C                    -4.22652  -1.27059   1.04338 
 N                    -5.27393  -1.48831   1.50757 
 C                    -3.27677  -2.46595  -1.3739 
 N                    -3.89533  -3.23706  -1.99214 
 O                    -1.70878   3.25193   0.17333 
 H                    -2.49136   2.85578   0.60563 
 C                    -0.08213   2.14823  -1.49232 
 H                     0.42139   2.56116  -2.3593 
 C                    -1.35047   2.12817  -0.96087 
 H                    -2.31841   1.96454  -1.42856 
 H                    -0.88701   2.97412   0.88406 
 O                     0.10084   2.24222   1.34919 
 H                     0.15931   1.96115   2.27248 
 
                    Isotopes and Nuclear Properties:

  Atom         1           2           3           4           5           6           7           8           9          10
 IAtWgt=         184          32          12          12          32          12          14          12          14          32
 AtmWgt= 183.9510000  31.9720718  12.0000000  12.0000000  31.9720718  12.0000000  14.0030740  12.0000000  14.0030740  31.9720718
 IAtSpn=           0           0           0           0           0           0           2           0           2           0
 AtZEff=   0.0000000   0.0000000   0.0000000   0.0000000   0.0000000   0.0000000   0.0000000   0.0000000   0.0000000   0.0000000
 AtQMom=   0.0000000   0.0000000   0.0000000   0.0000000   0.0000000   0.0000000   1.5600000   0.0000000   1.5600000   0.0000000
 AtGFac=   0.0000000   0.0000000   0.0000000   0.0000000   0.0000000   0.0000000   0.4037610   0.0000000   0.4037610   0.0000000

  Atom        11          12          13          14          15          16          17          18          19          20
 IAtWgt=          12          12          32          12          14          12          14          16           1          12
 AtmWgt=  12.0000000  12.0000000  31.9720718  12.0000000  14.0030740  12.0000000  14.0030740  15.9949146   1.0078250  12.0000000
 IAtSpn=           0           0           0           0           2           0           2           0           1           0
 AtZEff=   0.0000000   0.0000000   0.0000000   0.0000000   0.0000000   0.0000000   0.0000000   0.0000000   0.0000000   0.0000000
 AtQMom=   0.0000000   0.0000000   0.0000000   0.0000000   1.5600000   0.0000000   1.5600000   0.0000000   0.0000000   0.0000000
 AtGFac=   0.0000000   0.0000000   0.0000000   0.0000000   0.4037610   0.0000000   0.4037610   0.0000000   2.7928460   0.0000000

  Atom        21          22          23          24          25          26
 IAtWgt=           1          12           1           1          16           1
 AtmWgt=   1.0078250  12.0000000   1.0078250   1.0078250  15.9949146   1.0078250
 IAtSpn=           1           0           1           1           0           1
 AtZEff=   0.0000000   0.0000000   0.0000000   0.0000000   0.0000000   0.0000000
 AtQMom=   0.0000000   0.0000000   0.0000000   0.0000000   0.0000000   0.0000000
 AtGFac=   2.7928460   0.0000000   2.7928460   2.7928460   0.0000000   2.7928460
 Leave Link  101 at Sat Mar 20 14:02:53 2010, MaxMem=   31457280 cpu:       0.0
 (Enter /opt/g03c02/g03/l103.exe)

 GradGradGradGradGradGradGradGradGradGradGradGradGradGradGradGradGradGrad
 Berny optimization.
 Initialization pass.
 Trust Radius=8.00D-02 FncErr=1.00D-07 GrdErr=1.00D-07
 Number of steps in this run=   2 maximum allowed number of steps=   2.
 GradGradGradGradGradGradGradGradGradGradGradGradGradGradGradGradGradGrad

 Leave Link  103 at Sat Mar 20 14:02:53 2010, MaxMem=   31457280 cpu:       0.0
 (Enter /opt/g03c02/g03/l202.exe)
                          Input orientation:                          
 ---------------------------------------------------------------------
 Center     Atomic     Atomic              Coordinates (Angstroms)
 Number     Number      Type              X           Y           Z
 ---------------------------------------------------------------------
    1         74             0        0.058780    0.741559   -0.104271
    2         16             0        1.355098   -0.589805    1.619893
    3          6             0        2.870907   -0.962750    0.859600
    4          6             0        3.180625   -0.552294   -0.417701
    5         16             0        2.095947    0.474655   -1.342161
    6          6             0        3.797379   -1.736963    1.626734
    7          7             0        4.532646   -2.360260    2.281071
    8          6             0        4.419405   -0.875380   -1.044098
    9          7             0        5.421404   -1.112975   -1.591122
   10         16             0       -1.987254    0.188275    1.428979
   11          6             0       -2.939044   -0.956072    0.514371
   12          6             0       -2.486450   -1.521596   -0.652459
   13         16             0       -0.920367   -1.158371   -1.362493
   14          6             0       -4.226522   -1.270585    1.043383
   15          7             0       -5.273933   -1.488306    1.507567
   16          6             0       -3.276771   -2.465950   -1.373896
   17          7             0       -3.895328   -3.237059   -1.992138
   18          8             0       -1.708784    3.251930    0.173329
   19          1             0       -2.491361    2.855781    0.605633
   20          6             0       -0.082128    2.148233   -1.492324
   21          1             0        0.421385    2.561156   -2.359305
   22          6             0       -1.350474    2.128167   -0.960874
   23          1             0       -2.318407    1.964536   -1.428559
   24          1             0       -0.887007    2.974115    0.884061
   25          8             0        0.100843    2.242218    1.349194
   26          1             0        0.159310    1.961149    2.272479
 ---------------------------------------------------------------------
                    Distance matrix (angstroms):
                    1          2          3          4          5
     1  W    0.000000
     2  S    2.534899   0.000000
     3  C    3.426627   1.736321   0.000000
     4  C    3.393849   2.736009   1.376916   0.000000
     5  S    2.398679   3.233527   2.741249   1.756638   0.000000
     6  C    4.807970   2.698287   1.430472   2.442036   4.074367
     7  N    5.943620   3.697091   2.595186   3.518533   5.205963
     8  C    4.744767   4.070427   2.455513   1.425249   2.703681
     9  N    5.865813   5.207607   3.540288   2.590824   3.693402
    10  S    2.615958   3.437030   5.025015   5.537657   4.943052
    11  C    3.500231   4.449268   5.820203   6.203398   5.553812
    12  C    3.449721   4.559529   5.594632   5.754163   5.045698
    13  S    2.480239   3.794158   4.398832   4.251835   3.430064
    14  C    4.871308   5.652460   7.106479   7.583966   6.979276
    15  N    6.000679   6.690588   8.187459   8.721372   8.141824
    16  C    4.798537   5.825539   6.711338   6.802525   6.124889
    17  N    5.918481   6.900847   7.686796   7.730196   7.077759
    18  O    3.082743   5.122387   6.261634   6.223163   4.948327
    19  H    3.387789   5.262702   6.587837   6.695791   5.523319
    20  C    1.981231   4.387296   4.891848   4.369579   2.750895
    21  H    2.920204   5.160852   5.364645   4.590948   2.862207
    22  C    2.154634   4.622537   5.539671   5.292520   3.841523
    23  H    2.983359   5.414089   6.382292   6.131527   4.659799
    24  H    2.618324   4.274343   5.442557   5.538572   4.483456
    25  O    2.089571   3.109146   4.264361   4.518437   3.787890
    26  H    2.673284   2.891910   4.230623   4.762647   4.361863
                    6          7          8          9         10
     6  C    0.000000
     7  N    1.165021   0.000000
     8  C    2.874471   3.643411   0.000000
     9  N    3.658062   4.164071   1.166057   0.000000
    10  S    6.099806   7.051963   6.949299   8.105706   0.000000
    11  C    6.872157   7.805070   7.522108   8.622924   1.746981
    12  C    6.687870   7.653539   6.947072   7.973846   2.739569
    13  S    5.614924   6.667492   5.356736   6.346053   3.277807
    14  C    8.058585   8.913040   8.903135  10.002396   2.700237
    15  N    9.075502   9.875607  10.042284  11.141498   3.690442
    16  C    7.718731   8.623047   7.865736   8.805452   4.069874
    17  N    8.632744   9.489986   8.695464   9.564206   5.203624
    18  O    7.570949   8.654172   7.488092   8.544312   3.322677
    19  H    7.853929   8.907909   8.025077   9.120779   2.836831
    20  C    6.314574   7.474032   5.441226   6.397976   4.000619
    21  H    6.764589   7.915547   5.433573   6.252162   5.077716
    22  C    6.937963   8.078817   6.505361   7.533959   3.143257
    23  H    7.774236   8.910788   7.321956   8.330797   3.380871
    24  H    6.685005   7.731742   6.833331   7.913715   3.044402
    25  O    5.438317   6.456940   5.839284   6.943425   2.930051
    26  H    5.227673   6.148229   6.098687   7.215766   2.909005
                   11         12         13         14         15
    11  C    0.000000
    12  C    1.373372   0.000000
    13  S    2.763802   1.757469   0.000000
    14  C    1.427015   2.442691   4.090415   0.000000
    15  N    2.592570   3.526596   5.224906   1.166164   0.000000
    16  C    2.441177   1.427194   2.694909   2.859049   3.639680
    17  N    3.521359   2.592777   3.683448   3.631955   4.148087
    18  O    4.397400   4.906449   4.736149   5.248728   6.079500
    19  H    3.839137   4.554585   4.738666   4.497700   5.237106
    20  C    4.671777   4.466966   3.413668   5.940886   7.012746
    21  H    5.649902   5.295063   4.077844   6.918350   7.986707
    22  C    3.769938   3.834883   3.338805   4.882644   5.879252
    23  H    3.562319   3.575428   3.422196   4.496377   5.410923
    24  H    4.449033   5.013036   4.703781   5.403260   6.288647
    25  O    4.490757   4.986682   4.467675   5.582060   6.544472
    26  H    4.604446   5.261637   4.910207   5.584828   6.481046
                   16         17         18         19         20
    16  C    0.000000
    17  N    1.165952   0.000000
    18  O    6.127531   7.181727   0.000000
    19  H    5.732035   6.770690   0.977879   0.000000
    20  C    5.613417   6.617528   2.576540   3.272071   0.000000
    21  H    6.318163   7.237964   3.380684   4.166743   1.084291
    22  C    4.998712   6.027059   1.636351   2.070022   1.375334
    23  H    4.533283   5.464512   2.143611   2.227592   2.244717
    24  H    6.356386   7.476710   1.121445   1.632629   2.641423
    25  O    6.402370   7.560182   2.382630   2.765658   2.848954
    26  H    6.685949   7.851650   3.092300   3.256501   3.777173
                   21         22         23         24         25
    21  H    0.000000
    22  C    2.298385   0.000000
    23  H    2.954438   1.087382   0.000000
    24  H    3.521626   2.081878   2.901098   0.000000
    25  O    3.735965   2.730521   3.694021   1.314485   0.000000
    26  H    4.677832   3.572382   4.453849   2.012109   0.966888
                   26
    26  H    0.000000
 Stoichiometry    C10H5N4O2S4W(1-)
 Framework group  C1[X(C10H5N4O2S4W)]
 Deg. of freedom    72
 Full point group                 C1      NOp   1
 Largest Abelian subgroup         C1      NOp   1
 Largest concise Abelian subgroup C1      NOp   1
                         Standard orientation:                         
 ---------------------------------------------------------------------
 Center     Atomic     Atomic              Coordinates (Angstroms)
 Number     Number      Type              X           Y           Z
 ---------------------------------------------------------------------
    1         74             0        0.058780    0.741559   -0.104271
    2         16             0        1.355098   -0.589805    1.619893
    3          6             0        2.870907   -0.962750    0.859600
    4          6             0        3.180625   -0.552294   -0.417701
    5         16             0        2.095947    0.474655   -1.342161
    6          6             0        3.797379   -1.736963    1.626734
    7          7             0        4.532646   -2.360260    2.281071
    8          6             0        4.419405   -0.875380   -1.044098
    9          7             0        5.421404   -1.112975   -1.591122
   10         16             0       -1.987254    0.188275    1.428979
   11          6             0       -2.939044   -0.956072    0.514371
   12          6             0       -2.486450   -1.521596   -0.652459
   13         16             0       -0.920367   -1.158371   -1.362493
   14          6             0       -4.226522   -1.270585    1.043383
   15          7             0       -5.273933   -1.488306    1.507567
   16          6             0       -3.276771   -2.465950   -1.373896
   17          7             0       -3.895328   -3.237059   -1.992138
   18          8             0       -1.708784    3.251930    0.173329
   19          1             0       -2.491361    2.855781    0.605633
   20          6             0       -0.082128    2.148233   -1.492324
   21          1             0        0.421385    2.561156   -2.359305
   22          6             0       -1.350474    2.128167   -0.960874
   23          1             0       -2.318407    1.964536   -1.428559
   24          1             0       -0.887007    2.974115    0.884061
   25          8             0        0.100843    2.242218    1.349194
   26          1             0        0.159310    1.961149    2.272479
 ---------------------------------------------------------------------
 Rotational constants (GHZ):      0.3038532      0.1431800      0.1294891
 Leave Link  202 at Sat Mar 20 14:02:54 2010, MaxMem=   31457280 cpu:       0.0
 (Enter /opt/g03c02/g03/l301.exe)
 General basis read from cards:  (5D, 7F)
 Centers:   1
 sdd
 ****
 Centers:   2  5 10 13
 6-311+g*
 ****
 Centers:   3  4  6  8 11 12 14 16 20 22  7  9 15 17 18 25 19 21 23 24
 Centers:  26
 6-31g**
 ****
 ===================================================================================================================================
 Pseudopotential Parameters 
 ===================================================================================================================================
  Center     Atomic      Valence      Angular      Power                                                       Coordinates
  Number     Number     Electrons     Momentum     of R      Exponent        Coefficient                X           Y           Z
 ===================================================================================================================================
    1         74           14                                                                       0.111078  1.401343 -0.197044
                                      H and up 
                                                     2        1.0000000        0.00000000
                                      S - H
                                                     2       14.3228560     1192.39588200
                                                     2        7.1614280       32.52293300
                                      P - H
                                                     2       10.0216410      359.03196700
                                                     2        5.0108200       24.03038000
                                      D - H
                                                     2        6.5979970      108.30134900
                                                     2        3.2989990       10.98252800
                                      F - H
                                                     2        2.2588880       14.15257900
                                      G - H
                                                     2        3.4641100      -14.05643500
    2         16                                                                                    2.560764 -1.114570  3.061154
                                   No pseudopotential on this center.
    3          6                                                                                    5.425228 -1.819334  1.624409
                                   No pseudopotential on this center.
    4          6                                                                                    6.010510 -1.043685 -0.789340
                                   No pseudopotential on this center.
    5         16                                                                                    3.960766  0.896968 -2.536317
                                   No pseudopotential on this center.
    6          6                                                                                    7.176006 -3.282385  3.074082
                                   No pseudopotential on this center.
    7          7                                                                                    8.565460 -4.460245  4.310600
                                   No pseudopotential on this center.
    8          6                                                                                    8.351465 -1.654229 -1.973059
                                   No pseudopotential on this center.
    9          7                                                                                   10.244969 -2.103218 -3.006785
                                   No pseudopotential on this center.
   10         16                                                                                   -3.755366  0.355788  2.700379
                                   No pseudopotential on this center.
   11          6                                                                                   -5.553988 -1.806714  0.972020
                                   No pseudopotential on this center.
   12          6                                                                                   -4.698710 -2.875400 -1.232969
                                   No pseudopotential on this center.
   13         16                                                                                   -1.739242 -2.189004 -2.574739
                                   No pseudopotential on this center.
   14          6                                                                                   -7.986969 -2.401057  1.971708
                                   No pseudopotential on this center.
   15          7                                                                                   -9.966289 -2.812490  2.848889
                                   No pseudopotential on this center.
   16          6                                                                                   -6.192200 -4.659970 -2.596287
                                   No pseudopotential on this center.
   17          7                                                                                   -7.361103 -6.117155 -3.764595
                                   No pseudopotential on this center.
   18          8                                                                                   -3.229133  6.145257  0.327544
                                   No pseudopotential on this center.
   19          1                                                                                   -4.707990  5.396644  1.144481
                                   No pseudopotential on this center.
   20          6                                                                                   -0.155199  4.059572 -2.820084
                                   No pseudopotential on this center.
   21          1                                                                                    0.796303  4.839883 -4.458440
                                   No pseudopotential on this center.
   22          6                                                                                   -2.552026  4.021653 -1.815789
                                   No pseudopotential on this center.
   23          1                                                                                   -4.381154  3.712435 -2.699585
                                   No pseudopotential on this center.
   24          1                                                                                   -1.676200  5.620263  1.670633
                                   No pseudopotential on this center.
   25          8                                                                                    0.190566  4.237178  2.549607
                                   No pseudopotential on this center.
   26          1                                                                                    0.301053  3.706034  4.294363
                                   No pseudopotential on this center.
 ===================================================================================================================================
 There are   405 symmetry adapted basis functions of A   symmetry.
 Integral buffers will be    131072 words long.
 Raffenetti 2 integral format.
 Two-electron integral symmetry is turned on.
   405 basis functions,   748 primitive gaussians,   428 cartesian basis functions
    94 alpha electrons       94 beta electrons
       nuclear repulsion energy      2316.9637824053 Hartrees.
 IExCor= 402 DFT=T Ex=B+HF Corr=LYP ExCW=0 ScaHFX=  0.200000
 ScaDFX=  0.800000  0.720000  1.000000  0.810000
 IRadAn=      0 IRanWt=     -1 IRanGd=            0 ICorTp=0
 NAtoms=   26 NActive=   26 NUniq=   26 SFac= 1.00D+00 NAtFMM=   60 Big=F
 Leave Link  301 at Sat Mar 20 14:02:55 2010, MaxMem=   31457280 cpu:       0.0
 (Enter /opt/g03c02/g03/l302.exe)
 NPDir=0 NMtPBC=     1 NCelOv=     1 NCel=       1 NClECP=     1 NCelD=      1
         NCelK=      1 NCelE2=     1 NClLst=     1 CellRange=     0.0.
 One-electron integrals computed using PRISM.
   1 Symmetry operations used in ECPInt.
 ECPInt:  NShTT=   10585 NPrTT=   51135 LenC2=    8759 LenP2D=   25063.
 LDataN:  DoStor=F MaxTD1= 7 Len=  274
 LDataN:  DoStor=T MaxTD1= 7 Len=  274
 NBasis=   405 RedAO= T  NBF=   405
 NBsUse=   405 1.00D-06 NBFU=   405
 Precomputing XC quadrature grid using
 IXCGrd= 2 IRadAn=           0 IRanWt=          -1 IRanGd=           0.
 Defaulting to unpruned grid for atomic number  74.
 NRdTot=    1692 NPtTot=      226476 NUsed=      238425 NTot=      238457
 NSgBfM=   416   416   416   416.
 Leave Link  302 at Sat Mar 20 14:02:59 2010, MaxMem=   31457280 cpu:       0.0
 (Enter /opt/g03c02/g03/l303.exe)
 DipDrv:  MaxL=1.
 Leave Link  303 at Sat Mar 20 14:02:59 2010, MaxMem=   31457280 cpu:       0.0
 (Enter /opt/g03c02/g03/l401.exe)
 Harris functional with IExCor=  402 diagonalized for initial guess.
 ExpMin= 1.50D-02 ExpMax= 9.34D+04 ExpMxC= 3.17D+03 IAcc=3 IRadAn=         5 AccDes= 0.00D+00
 HarFok:  IExCor= 402 AccDes= 0.00D+00 IRadAn=         5 IDoV=1
 ScaDFX=  1.000000  1.000000  1.000000  1.000000
 Defaulting to unpruned grid for atomic number  74.
 Defaulting to unpruned grid for atomic number  74.
 Defaulting to unpruned grid for atomic number  74.
 Defaulting to unpruned grid for atomic number  74.
 Harris En=  7463.90864692482    
 Initial guess orbital symmetries:
       Occupied  (A) (A) (A) (A) (A) (A) (A) (A) (A) (A) (A) (A)
                 (A) (A) (A) (A) (A) (A) (A) (A) (A) (A) (A) (A)
                 (A) (A) (A) (A) (A) (A) (A) (A) (A) (A) (A) (A)
                 (A) (A) (A) (A) (A) (A) (A) (A) (A) (A) (A) (A)
                 (A) (A) (A) (A) (A) (A) (A) (A) (A) (A) (A) (A)
                 (A) (A) (A) (A) (A) (A) (A) (A) (A) (A) (A) (A)
                 (A) (A) (A) (A) (A) (A) (A) (A) (A) (A) (A) (A)
                 (A) (A) (A) (A) (A) (A) (A) (A) (A) (A)
       Virtual   (A) (A) (A) (A) (A) (A) (A) (A) (A) (A) (A) (A)
                 (A) (A) (A) (A) (A) (A) (A) (A) (A) (A) (A) (A)
                 (A) (A) (A) (A) (A) (A) (A) (A) (A) (A) (A) (A)
                 (A) (A) (A) (A) (A) (A) (A) (A) (A) (A) (A) (A)
                 (A) (A) (A) (A) (A) (A) (A) (A) (A) (A) (A) (A)
                 (A) (A) (A) (A) (A) (A) (A) (A) (A) (A) (A) (A)
                 (A) (A) (A) (A) (A) (A) (A) (A) (A) (A) (A) (A)
                 (A) (A) (A) (A) (A) (A) (A) (A) (A) (A) (A) (A)
                 (A) (A) (A) (A) (A) (A) (A) (A) (A) (A) (A) (A)
                 (A) (A) (A) (A) (A) (A) (A) (A) (A) (A) (A) (A)
                 (A) (A) (A) (A) (A) (A) (A) (A) (A) (A) (A) (A)
                 (A) (A) (A) (A) (A) (A) (A) (A) (A) (A) (A) (A)
                 (A) (A) (A) (A) (A) (A) (A) (A) (A) (A) (A) (A)
                 (A) (A) (A) (A) (A) (A) (A) (A) (A) (A) (A) (A)
                 (A) (A) (A) (A) (A) (A) (A) (A) (A) (A) (A) (A)
                 (A) (A) (A) (A) (A) (A) (A) (A) (A) (A) (A) (A)
                 (A) (A) (A) (A) (A) (A) (A) (A) (A) (A) (A) (A)
                 (A) (A) (A) (A) (A) (A) (A) (A) (A) (A) (A) (A)
                 (A) (A) (A) (A) (A) (A) (A) (A) (A) (A) (A) (A)
                 (A) (A) (A) (A) (A) (A) (A) (A) (A) (A) (A) (A)
                 (A) (A) (A) (A) (A) (A) (A) (A) (A) (A) (A) (A)
                 (A) (A) (A) (A) (A) (A) (A) (A) (A) (A) (A) (A)
                 (A) (A) (A) (A) (A) (A) (A) (A) (A) (A) (A) (A)
                 (A) (A) (A) (A) (A) (A) (A) (A) (A) (A) (A) (A)
                 (A) (A) (A) (A) (A) (A) (A) (A) (A) (A) (A) (A)
                 (A) (A) (A) (A) (A) (A) (A) (A) (A) (A) (A)
 The electronic state of the initial guess is 1-A.
 Leave Link  401 at Sat Mar 20 14:03:35 2010, MaxMem=   31457280 cpu:       0.0
 (Enter /opt/g03c02/g03/l502.exe)
 Closed shell SCF:
 Requested convergence on RMS density matrix=1.00D-06 within 128 cycles.
 Requested convergence on MAX density matrix=1.00D-04.
 Requested convergence on             energy=1.00D-04.
 No special actions if energy rises.
 Using DIIS extrapolation, IDIIS=  1040.
 Integral symmetry usage will be decided dynamically.
       238424 words used for storage of precomputed grid.
 IEnd=    901772 IEndB=    901772 NGot=  31457280 MDV=  30755761
 LenX=  30755761
 Fock matrices will be formed incrementally for  20 cycles.

 Cycle   1  Pass 1  IDiag  1:
 Petite list used in FoFDir.
 MinBra= 0 MaxBra= 2 Meth= 1.
 IRaf=       0 NMat=   1 IRICut=       1 DoRegI=T DoRafI=F ISym2E= 1 JSym2E=1.
 Defaulting to unpruned grid for atomic number  74.
 Defaulting to unpruned grid for atomic number  74.
 Defaulting to unpruned grid for atomic number  74.
 Defaulting to unpruned grid for atomic number  74.
 E= -2412.18755900092    
 DIIS: error= 1.35D-01 at cycle   1 NSaved=   1.
 NSaved= 1 IEnMin= 1 EnMin= -2412.18755900092     IErMin= 1 ErrMin= 1.35D-01
 ErrMax= 1.35D-01 EMaxC= 1.00D-01 BMatC= 1.15D+01 BMatP= 1.15D+01
 IDIUse=3 WtCom= 0.00D+00 WtEn= 1.00D+00
 Coeff-Com:  0.100D+01
 Coeff-En:   0.100D+01
 Coeff:      0.100D+01
 Gap=     0.180 Goal=   None    Shift=    0.000
 GapD=    0.180 DampG=1.000 DampE=0.125 DampFc=0.1250 IDamp=-1.
 Damping current iteration by 1.25D-01
 RMSDP=1.56D-02 MaxDP=1.54D+00              OVMax= 4.73D-01

 Cycle   2  Pass 1  IDiag  1:
 RMSU=  1.92D-03    CP:  9.86D-01
 E= -2412.44754806728     Delta-E=       -0.259989066368 Rises=F Damp=T
 DIIS: error= 1.16D-01 at cycle   2 NSaved=   2.
 NSaved= 2 IEnMin= 2 EnMin= -2412.44754806728     IErMin= 2 ErrMin= 1.16D-01
 ErrMax= 1.16D-01 EMaxC= 1.00D-01 BMatC= 8.55D+00 BMatP= 1.15D+01
 IDIUse=3 WtCom= 0.00D+00 WtEn= 1.00D+00
 Coeff-Com: -0.536D+01 0.636D+01
 Coeff-En:   0.000D+00 0.100D+01
 Coeff:      0.000D+00 0.100D+01
 Gap=     0.091 Goal=   None    Shift=    0.000
 RMSDP=9.32D-03 MaxDP=1.31D+00 DE=-2.60D-01 OVMax= 1.89D-01

 Cycle   3  Pass 1  IDiag  1:
 RMSU=  5.64D-03    CP:  8.71D-01  3.00D+00
 E= -2412.92618123934     Delta-E=       -0.478633172054 Rises=F Damp=F
 DIIS: error= 2.09D-02 at cycle   3 NSaved=   3.
 NSaved= 3 IEnMin= 3 EnMin= -2412.92618123934     IErMin= 3 ErrMin= 2.09D-02
 ErrMax= 2.09D-02 EMaxC= 1.00D-01 BMatC= 6.80D-01 BMatP= 8.55D+00
 IDIUse=3 WtCom= 7.91D-01 WtEn= 2.09D-01
 EnCoef did   100 forward-backward iterations
 Coeff-Com:  0.646D+01-0.733D+01 0.186D+01
 Coeff-En:   0.264D+00 0.883D-02 0.727D+00
 Coeff:      0.517D+01-0.579D+01 0.162D+01
 Gap=     0.129 Goal=   None    Shift=    0.000
 RMSDP=7.23D-03 MaxDP=5.29D-01 DE=-4.79D-01 OVMax= 3.05D-01

 Cycle   4  Pass 1  IDiag  1:
 RMSU=  4.89D-03    CP:  8.73D-01  2.05D+00  4.78D-01
 E= -2413.19426808440     Delta-E=       -0.268086845062 Rises=F Damp=F
 DIIS: error= 2.07D-02 at cycle   4 NSaved=   4.
 NSaved= 4 IEnMin= 4 EnMin= -2413.19426808440     IErMin= 4 ErrMin= 2.07D-02
 ErrMax= 2.07D-02 EMaxC= 1.00D-01 BMatC= 3.97D-01 BMatP= 6.80D-01
 IDIUse=3 WtCom= 7.93D-01 WtEn= 2.07D-01
 Coeff-Com:  0.133D+01-0.151D+01 0.685D+00 0.491D+00
 Coeff-En:   0.000D+00 0.000D+00 0.395D+00 0.605D+00
 Coeff:      0.105D+01-0.119D+01 0.625D+00 0.515D+00
 Gap=     0.117 Goal=   None    Shift=    0.000
 RMSDP=2.95D-03 MaxDP=1.94D-01 DE=-2.68D-01 OVMax= 2.78D-01

 Cycle   5  Pass 1  IDiag  1:
 RMSU=  2.46D-03    CP:  8.64D-01  2.52D+00  4.75D-01  7.23D-01
 E= -2413.32306128582     Delta-E=       -0.128793201420 Rises=F Damp=F
 DIIS: error= 1.18D-02 at cycle   5 NSaved=   5.
 NSaved= 5 IEnMin= 5 EnMin= -2413.32306128582     IErMin= 5 ErrMin= 1.18D-02
 ErrMax= 1.18D-02 EMaxC= 1.00D-01 BMatC= 2.68D-01 BMatP= 3.97D-01
 IDIUse=3 WtCom= 8.82D-01 WtEn= 1.18D-01
 EnCoef did     6 forward-backward iterations
 Coeff-Com: -0.768D+00 0.884D+00 0.119D+00 0.436D+00 0.330D+00
 Coeff-En:   0.000D+00 0.000D+00 0.166D+00 0.397D+00 0.437D+00
 Coeff:     -0.677D+00 0.779D+00 0.125D+00 0.431D+00 0.342D+00
 Gap=     0.098 Goal=   None    Shift=    0.000
 RMSDP=1.97D-03 MaxDP=1.46D-01 DE=-1.29D-01 OVMax= 1.77D-01

 Cycle   6  Pass 1  IDiag  1:
 RMSU=  1.17D-03    CP:  8.70D-01  2.72D+00  4.89D-01  7.93D-01  3.92D-01
 E= -2413.55805277814     Delta-E=       -0.234991492323 Rises=F Damp=F
 DIIS: error= 4.47D-03 at cycle   6 NSaved=   6.
 NSaved= 6 IEnMin= 6 EnMin= -2413.55805277814     IErMin= 6 ErrMin= 4.47D-03
 ErrMax= 4.47D-03 EMaxC= 1.00D-01 BMatC= 4.03D-02 BMatP= 2.68D-01
 IDIUse=3 WtCom= 9.55D-01 WtEn= 4.47D-02
 Coeff-Com: -0.854D+00 0.979D+00 0.408D-02 0.295D+00 0.289D+00 0.287D+00
 Coeff-En:   0.000D+00 0.000D+00 0.000D+00 0.000D+00 0.167D+00 0.833D+00
 Coeff:     -0.816D+00 0.935D+00 0.390D-02 0.282D+00 0.284D+00 0.311D+00
 Gap=     0.090 Goal=   None    Shift=    0.000
 RMSDP=7.10D-04 MaxDP=3.96D-02 DE=-2.35D-01 OVMax= 6.27D-02

 Cycle   7  Pass 1  IDiag  1:
 RMSU=  3.37D-04    CP:  8.69D-01  2.72D+00  4.77D-01  7.83D-01  4.88D-01
                    CP:  5.10D-01
 E= -2413.59979062887     Delta-E=       -0.041737850725 Rises=F Damp=F
 DIIS: error= 5.22D-04 at cycle   7 NSaved=   7.
 NSaved= 7 IEnMin= 7 EnMin= -2413.59979062887     IErMin= 7 ErrMin= 5.22D-04
 ErrMax= 5.22D-04 EMaxC= 1.00D-01 BMatC= 3.77D-04 BMatP= 4.03D-02
 IDIUse=3 WtCom= 9.95D-01 WtEn= 5.22D-03
 Coeff-Com: -0.208D+00 0.239D+00 0.741D-03 0.737D-01 0.703D-01 0.103D+00
 Coeff-Com:  0.722D+00
 Coeff-En:   0.000D+00 0.000D+00 0.000D+00 0.000D+00 0.000D+00 0.000D+00
 Coeff-En:   0.100D+01
 Coeff:     -0.207D+00 0.238D+00 0.737D-03 0.733D-01 0.699D-01 0.102D+00
 Coeff:      0.723D+00
 Gap=     0.091 Goal=   None    Shift=    0.000
 RMSDP=1.68D-04 MaxDP=5.98D-03 DE=-4.17D-02 OVMax= 1.32D-02

 Cycle   8  Pass 1  IDiag  1:
 RMSU=  1.63D-04    CP:  8.69D-01  2.74D+00  4.76D-01  7.82D-01  4.76D-01
                    CP:  5.18D-01  9.61D-01
 E= -2413.59954235357     Delta-E=        0.000248275301 Rises=F Damp=F
 DIIS: error= 1.03D-03 at cycle   8 NSaved=   8.
 NSaved= 8 IEnMin= 7 EnMin= -2413.59979062887     IErMin= 7 ErrMin= 5.22D-04
 ErrMax= 1.03D-03 EMaxC= 1.00D-01 BMatC= 6.51D-04 BMatP= 3.77D-04
 IDIUse=3 WtCom= 9.95D-01 WtEn= 5.22D-03
 Coeff-Com: -0.486D-01 0.558D-01-0.267D-02 0.133D-01 0.109D-01 0.254D-01
 Coeff-Com:  0.575D+00 0.371D+00
 Coeff-En:   0.000D+00 0.000D+00 0.000D+00 0.000D+00 0.000D+00 0.000D+00
 Coeff-En:   0.590D+00 0.410D+00
 Coeff:     -0.484D-01 0.555D-01-0.266D-02 0.132D-01 0.109D-01 0.252D-01
 Coeff:      0.575D+00 0.371D+00
 Gap=     0.090 Goal=   None    Shift=    0.000
 RMSDP=9.77D-05 MaxDP=3.13D-03 DE= 2.48D-04 OVMax= 6.14D-03

 Cycle   9  Pass 1  IDiag  1:
 RMSU=  4.95D-05    CP:  8.69D-01  2.72D+00  4.78D-01  7.86D-01  4.79D-01
                    CP:  5.27D-01  9.60D-01  5.38D-01
 E= -2413.60018086720     Delta-E=       -0.000638513636 Rises=F Damp=F
 DIIS: error= 1.46D-04 at cycle   9 NSaved=   9.
 NSaved= 9 IEnMin= 9 EnMin= -2413.60018086720     IErMin= 9 ErrMin= 1.46D-04
 ErrMax= 1.46D-04 EMaxC= 1.00D-01 BMatC= 2.32D-05 BMatP= 3.77D-04
 IDIUse=3 WtCom= 9.99D-01 WtEn= 1.46D-03
 Coeff-Com: -0.118D-01 0.136D-01-0.184D-02 0.143D-02 0.120D-02 0.130D-02
 Coeff-Com:  0.236D+00 0.203D+00 0.557D+00
 Coeff-En:   0.000D+00 0.000D+00 0.000D+00 0.000D+00 0.000D+00 0.000D+00
 Coeff-En:   0.000D+00 0.000D+00 0.100D+01
 Coeff:     -0.118D-01 0.136D-01-0.184D-02 0.143D-02 0.119D-02 0.130D-02
 Coeff:      0.236D+00 0.203D+00 0.557D+00
 Gap=     0.090 Goal=   None    Shift=    0.000
 RMSDP=2.35D-05 MaxDP=8.34D-04 DE=-6.39D-04 OVMax= 1.85D-03

 Cycle  10  Pass 1  IDiag  1:
 RMSU=  2.24D-05    CP:  8.69D-01  2.72D+00  4.78D-01  7.87D-01  4.79D-01
                    CP:  5.26D-01  9.70D-01  5.29D-01  9.44D-01
 E= -2413.60019752093     Delta-E=       -0.000016653724 Rises=F Damp=F
 DIIS: error= 1.40D-04 at cycle  10 NSaved=  10.
 NSaved=10 IEnMin=10 EnMin= -2413.60019752093     IErMin=10 ErrMin= 1.40D-04
 ErrMax= 1.40D-04 EMaxC= 1.00D-01 BMatC= 7.76D-06 BMatP= 2.32D-05
 IDIUse=3 WtCom= 9.99D-01 WtEn= 1.40D-03
 Coeff-Com:  0.101D-02-0.115D-02-0.578D-03-0.110D-02-0.690D-03-0.414D-02
 Coeff-Com:  0.633D-01 0.774D-01 0.402D+00 0.464D+00
 Coeff-En:   0.000D+00 0.000D+00 0.000D+00 0.000D+00 0.000D+00 0.000D+00
 Coeff-En:   0.000D+00 0.000D+00 0.229D+00 0.771D+00
 Coeff:      0.101D-02-0.115D-02-0.577D-03-0.109D-02-0.689D-03-0.414D-02
 Coeff:      0.632D-01 0.772D-01 0.401D+00 0.465D+00
 Gap=     0.090 Goal=   None    Shift=    0.000
 RMSDP=1.07D-05 MaxDP=4.08D-04 DE=-1.67D-05 OVMax= 1.04D-03

 Cycle  11  Pass 1  IDiag  1:
 RMSU=  8.23D-06    CP:  8.69D-01  2.72D+00  4.78D-01  7.86D-01  4.80D-01
                    CP:  5.25D-01  9.76D-01  5.45D-01  9.93D-01  7.82D-01
 E= -2413.60020392113     Delta-E=       -0.000006400203 Rises=F Damp=F
 DIIS: error= 5.69D-05 at cycle  11 NSaved=  11.
 NSaved=11 IEnMin=11 EnMin= -2413.60020392113     IErMin=11 ErrMin= 5.69D-05
 ErrMax= 5.69D-05 EMaxC= 1.00D-01 BMatC= 1.38D-06 BMatP= 7.76D-06
 IDIUse=1 WtCom= 1.00D+00 WtEn= 0.00D+00
 Coeff-Com:  0.124D-02-0.142D-02-0.348D-03-0.784D-03-0.498D-03-0.304D-02
 Coeff-Com:  0.117D-01 0.261D-01 0.211D+00 0.337D+00 0.418D+00
 Coeff:      0.124D-02-0.142D-02-0.348D-03-0.784D-03-0.498D-03-0.304D-02
 Coeff:      0.117D-01 0.261D-01 0.211D+00 0.337D+00 0.418D+00
 Gap=     0.090 Goal=   None    Shift=    0.000
 RMSDP=4.51D-06 MaxDP=1.64D-04 DE=-6.40D-06 OVMax= 2.97D-04

 Cycle  12  Pass 1  IDiag  1:
 RMSU=  3.25D-06    CP:  8.69D-01  2.72D+00  4.78D-01  7.87D-01  4.80D-01
                    CP:  5.25D-01  9.73D-01  5.49D-01  1.02D+00  8.23D-01
                    CP:  7.87D-01
 E= -2413.60020524137     Delta-E=       -0.000001320243 Rises=F Damp=F
 DIIS: error= 8.59D-06 at cycle  12 NSaved=  12.
 NSaved=12 IEnMin=12 EnMin= -2413.60020524137     IErMin=12 ErrMin= 8.59D-06
 ErrMax= 8.59D-06 EMaxC= 1.00D-01 BMatC= 1.09D-07 BMatP= 1.38D-06
 IDIUse=1 WtCom= 1.00D+00 WtEn= 0.00D+00
 Coeff-Com:  0.297D-03-0.342D-03-0.178D-03-0.167D-03-0.232D-03-0.954D-03
 Coeff-Com: -0.652D-02-0.141D-02 0.469D-01 0.107D+00 0.223D+00 0.633D+00
 Coeff:      0.297D-03-0.342D-03-0.178D-03-0.167D-03-0.232D-03-0.954D-03
 Coeff:     -0.652D-02-0.141D-02 0.469D-01 0.107D+00 0.223D+00 0.633D+00
 Gap=     0.090 Goal=   None    Shift=    0.000
 RMSDP=2.15D-06 MaxDP=1.00D-04 DE=-1.32D-06 OVMax= 3.01D-04

 Cycle  13  Pass 1  IDiag  1:
 RMSU=  1.59D-06    CP:  8.69D-01  2.72D+00  4.78D-01  7.87D-01  4.80D-01
                    CP:  5.25D-01  9.74D-01  5.53D-01  1.04D+00  8.44D-01
                    CP:  8.23D-01  8.79D-01
 E= -2413.60020535208     Delta-E=       -0.000000110706 Rises=F Damp=F
 DIIS: error= 4.34D-06 at cycle  13 NSaved=  13.
 NSaved=13 IEnMin=13 EnMin= -2413.60020535208     IErMin=13 ErrMin= 4.34D-06
 ErrMax= 4.34D-06 EMaxC= 1.00D-01 BMatC= 2.76D-08 BMatP= 1.09D-07
 IDIUse=1 WtCom= 1.00D+00 WtEn= 0.00D+00
 Coeff-Com:  0.191D-03-0.220D-03-0.624D-04-0.965D-05-0.147D-03-0.237D-03
 Coeff-Com: -0.602D-02-0.459D-02 0.464D-02 0.253D-01 0.732D-01 0.389D+00
 Coeff-Com:  0.519D+00
 Coeff:      0.191D-03-0.220D-03-0.624D-04-0.965D-05-0.147D-03-0.237D-03
 Coeff:     -0.602D-02-0.459D-02 0.464D-02 0.253D-01 0.732D-01 0.389D+00
 Coeff:      0.519D+00
 Gap=     0.090 Goal=   None    Shift=    0.000
 RMSDP=9.64D-07 MaxDP=2.81D-05 DE=-1.11D-07 OVMax= 1.35D-04

 SCF Done:  E(RB+HF-LYP) =  -2413.60020535     A.U. after   13 cycles
             Convg  =    0.9642D-06             -V/T =  2.0218
             S**2   =   0.0000
 KE= 2.362038260025D+03 PE=-1.033536742195D+04 EE= 3.242765174163D+03
 Leave Link  502 at Sat Mar 20 14:25:57 2010, MaxMem=   31457280 cpu:       0.0
 (Enter /opt/g03c02/g03/l801.exe)
 Range of M.O.s used for correlation:     1   405
 NBasis=   405 NAE=    94 NBE=    94 NFC=     0 NFV=     0
 NROrb=    405 NOA=    94 NOB=    94 NVA=   311 NVB=   311

 **** Warning!!: The largest alpha MO coefficient is  0.11325122D+02


 **** Warning!!: The smallest alpha delta epsilon is  0.90300745D-01

 Leave Link  801 at Sat Mar 20 14:25:57 2010, MaxMem=   31457280 cpu:       0.0
 (Enter /opt/g03c02/g03/l1101.exe)
 Using compressed storage, NAtomX=    26.
 Will process  27 centers per pass.
 PrsmSu:  requested number of processors reduced to:   3 ShMem   1 Linda.
   1 Symmetry operations used in ECPInt.
 ECPInt:  NShTT=   10585 NPrTT=   51135 LenC2=    8759 LenP2D=   25063.
 LDataN:  DoStor=F MaxTD1= 8 Len=  415
 LDataN:  DoStor=T MaxTD1= 8 Len=  415
 Number of processors reduced to   1 by ecpmxn.
 Leave Link 1101 at Sat Mar 20 14:26:09 2010, MaxMem=   31457280 cpu:       0.0
 (Enter /opt/g03c02/g03/l1102.exe)
 Use density number 0.
 Symmetrizing basis deriv contribution to polar:
 IMax=3 JMax=2 DiffMx= 0.00D+00
 Leave Link 1102 at Sat Mar 20 14:26:10 2010, MaxMem=   31457280 cpu:       0.0
 (Enter /opt/g03c02/g03/l1110.exe)
 Forming Gx(P) for the SCF density, NAtomX=    26.
 Integral derivatives from FoFDir, PRISM(SPDF).
 Do as many integral derivatives as possible in FoFDir.
 G2DrvN: MDV=      31457070.
 G2DrvN: will do   14 centers at a time, making    2 passes doing MaxLOS=2.
 G2DrvN:  IPasSy=1 do centers   0 through  13.
 Symmetry not used in FoFDir.
 MinBra= 0 MaxBra= 2 Meth= 1.
 IRaf=       0 NMat=   1 IRICut=       1 DoRegI=T DoRafI=F ISym2E= 0 JSym2E=0.
 Defaulting to unpruned grid for atomic number  74.
 Defaulting to unpruned grid for atomic number  74.
 Defaulting to unpruned grid for atomic number  74.
 Defaulting to unpruned grid for atomic number  74.
 G2DrvN:  IPasSy=1 do centers  14 through  26.
 FoFDir/FoFCou used for L=0 through L=2.
 Leave Link 1110 at Sat Mar 20 15:12:15 2010, MaxMem=   31457280 cpu:       0.0
 (Enter /opt/g03c02/g03/l1002.exe)
 Minotr:  Closed-shell wavefunction.
 DoAtom=TTTTTTTTTTTTTTTTTTTTTTTTTT
          Direct CPHF calculation.
          Solving linear equations simultaneously.
          Differentiating once with respect to electric field.
                with respect to dipole field.
          Differentiating once with respect to nuclear coordinates.
          Requested convergence is 1.0D-08 RMS, and 1.0D-07 maximum.
          Secondary convergence is 1.0D-12 RMS, and 1.0D-12 maximum.
          NewPWx=T KeepS1=F KeepF1=F KeepIn=T MapXYZ=F.
          MDV=      31457044 using IRadAn=       2.
 Defaulting to unpruned grid for atomic number  74.
 Generate precomputed XC quadrature information.
 Integrals replicated using symmetry in FoFDir.
 MinBra= 0 MaxBra= 2 Meth= 1.
 IRaf=       0 NMat=  41 IRICut=      41 DoRegI=T DoRafI=T ISym2E= 2 JSym2E=2.
 Defaulting to unpruned grid for atomic number  74.
 Defaulting to unpruned grid for atomic number  74.
 Defaulting to unpruned grid for atomic number  74.
 Defaulting to unpruned grid for atomic number  74.
          There are  81 degrees of freedom in the 1st order CPHF.
    81 vectors were produced by pass  0.
 AX will form  41 AO Fock derivatives at one time.
    80 vectors were produced by pass  1.
    78 vectors were produced by pass  2.
    78 vectors were produced by pass  3.
    78 vectors were produced by pass  4.
    78 vectors were produced by pass  5.
    62 vectors were produced by pass  6.
    12 vectors were produced by pass  7.
     3 vectors were produced by pass  8.
     1 vectors were produced by pass  9.
 Inv2:  IOpt= 1 Iter= 1 AM= 4.06D-15 Conv= 1.00D-12.
 Inverted reduced A of dimension  551 with in-core refinement.
 Isotropic polarizability for W=    0.000000      300.01 Bohr**3.
 End of Minotr Frequency-dependent properties file   721 does not exist.
 Leave Link 1002 at Sat Mar 20 18:30:08 2010, MaxMem=   31457280 cpu:       0.0
 (Enter /opt/g03c02/g03/l601.exe)
 Copying SCF densities to generalized density rwf, ISCF=0 IROHF=0.

 **********************************************************************

            Population analysis using the SCF density.

 **********************************************************************

 Orbital symmetries:
       Occupied  (A) (A) (A) (A) (A) (A) (A) (A) (A) (A) (A) (A)
                 (A) (A) (A) (A) (A) (A) (A) (A) (A) (A) (A) (A)
                 (A) (A) (A) (A) (A) (A) (A) (A) (A) (A) (A) (A)
                 (A) (A) (A) (A) (A) (A) (A) (A) (A) (A) (A) (A)
                 (A) (A) (A) (A) (A) (A) (A) (A) (A) (A) (A) (A)
                 (A) (A) (A) (A) (A) (A) (A) (A) (A) (A) (A) (A)
                 (A) (A) (A) (A) (A) (A) (A) (A) (A) (A) (A) (A)
                 (A) (A) (A) (A) (A) (A) (A) (A) (A) (A)
       Virtual   (A) (A) (A) (A) (A) (A) (A) (A) (A) (A) (A) (A)
                 (A) (A) (A) (A) (A) (A) (A) (A) (A) (A) (A) (A)
                 (A) (A) (A) (A) (A) (A) (A) (A) (A) (A) (A) (A)
                 (A) (A) (A) (A) (A) (A) (A) (A) (A) (A) (A) (A)
                 (A) (A) (A) (A) (A) (A) (A) (A) (A) (A) (A) (A)
                 (A) (A) (A) (A) (A) (A) (A) (A) (A) (A) (A) (A)
                 (A) (A) (A) (A) (A) (A) (A) (A) (A) (A) (A) (A)
                 (A) (A) (A) (A) (A) (A) (A) (A) (A) (A) (A) (A)
                 (A) (A) (A) (A) (A) (A) (A) (A) (A) (A) (A) (A)
                 (A) (A) (A) (A) (A) (A) (A) (A) (A) (A) (A) (A)
                 (A) (A) (A) (A) (A) (A) (A) (A) (A) (A) (A) (A)
                 (A) (A) (A) (A) (A) (A) (A) (A) (A) (A) (A) (A)
                 (A) (A) (A) (A) (A) (A) (A) (A) (A) (A) (A) (A)
                 (A) (A) (A) (A) (A) (A) (A) (A) (A) (A) (A) (A)
                 (A) (A) (A) (A) (A) (A) (A) (A) (A) (A) (A) (A)
                 (A) (A) (A) (A) (A) (A) (A) (A) (A) (A) (A) (A)
                 (A) (A) (A) (A) (A) (A) (A) (A) (A) (A) (A) (A)
                 (A) (A) (A) (A) (A) (A) (A) (A) (A) (A) (A) (A)
                 (A) (A) (A) (A) (A) (A) (A) (A) (A) (A) (A) (A)
                 (A) (A) (A) (A) (A) (A) (A) (A) (A) (A) (A) (A)
                 (A) (A) (A) (A) (A) (A) (A) (A) (A) (A) (A) (A)
                 (A) (A) (A) (A) (A) (A) (A) (A) (A) (A) (A) (A)
                 (A) (A) (A) (A) (A) (A) (A) (A) (A) (A) (A) (A)
                 (A) (A) (A) (A) (A) (A) (A) (A) (A) (A) (A) (A)
                 (A) (A) (A) (A) (A) (A) (A) (A) (A) (A) (A) (A)
                 (A) (A) (A) (A) (A) (A) (A) (A) (A) (A) (A)
 The electronic state is 1-A.
 Alpha  occ. eigenvalues --  -88.77579 -88.75638 -88.75531 -88.74997 -19.13738
 Alpha  occ. eigenvalues --  -19.09302 -14.25896 -14.25636 -14.25261 -14.25109
 Alpha  occ. eigenvalues --  -10.17988 -10.17179 -10.16889 -10.16780 -10.15996
 Alpha  occ. eigenvalues --  -10.15081 -10.14904 -10.14565 -10.14377 -10.10660
 Alpha  occ. eigenvalues --   -7.86182  -7.84342  -7.84182  -7.83689  -5.82510
 Alpha  occ. eigenvalues --   -5.81963  -5.81868  -5.80698  -5.80552  -5.80086
 Alpha  occ. eigenvalues --   -5.80064  -5.80023  -5.80007  -5.79779  -5.79502
 Alpha  occ. eigenvalues --   -5.79293  -2.92524  -1.57561  -1.56621  -1.56493
 Alpha  occ. eigenvalues --   -0.99784  -0.91975  -0.83176  -0.82585  -0.82101
 Alpha  occ. eigenvalues --   -0.81551  -0.77126  -0.76226  -0.68597  -0.68074
 Alpha  occ. eigenvalues --   -0.67038  -0.61705  -0.60350  -0.54470  -0.53482
 Alpha  occ. eigenvalues --   -0.51661  -0.49705  -0.47948  -0.47277  -0.43022
 Alpha  occ. eigenvalues --   -0.40684  -0.38603  -0.38005  -0.35226  -0.35079
 Alpha  occ. eigenvalues --   -0.33100  -0.32617  -0.32105  -0.31563  -0.29656
 Alpha  occ. eigenvalues --   -0.28680  -0.28218  -0.27956  -0.27560  -0.27505
 Alpha  occ. eigenvalues --   -0.27006  -0.26902  -0.25973  -0.25216  -0.24747
 Alpha  occ. eigenvalues --   -0.24641  -0.24178  -0.23292  -0.22904  -0.22615
 Alpha  occ. eigenvalues --   -0.21951  -0.20064  -0.19712  -0.18499  -0.17872
 Alpha  occ. eigenvalues --   -0.17467  -0.15053  -0.14393  -0.10966
 Alpha virt. eigenvalues --   -0.01936   0.00441   0.02176   0.02680   0.05284
 Alpha virt. eigenvalues --    0.06023   0.07120   0.08246   0.08628   0.09150
 Alpha virt. eigenvalues --    0.09862   0.10229   0.11026   0.12248   0.13070
 Alpha virt. eigenvalues --    0.13295   0.13456   0.13887   0.14479   0.14728
 Alpha virt. eigenvalues --    0.15034   0.15136   0.15499   0.15618   0.16221
 Alpha virt. eigenvalues --    0.16436   0.16893   0.17460   0.17882   0.18033
 Alpha virt. eigenvalues --    0.18433   0.18493   0.19633   0.20395   0.21253
 Alpha virt. eigenvalues --    0.21962   0.22232   0.22559   0.23036   0.23321
 Alpha virt. eigenvalues --    0.23826   0.24385   0.25066   0.25795   0.25856
 Alpha virt. eigenvalues --    0.26946   0.27465   0.28386   0.28919   0.29761
 Alpha virt. eigenvalues --    0.30525   0.33621   0.34554   0.35574   0.35839
 Alpha virt. eigenvalues --    0.37285   0.37376   0.38169   0.39360   0.40063
 Alpha virt. eigenvalues --    0.40847   0.41234   0.42031   0.43320   0.43590
 Alpha virt. eigenvalues --    0.44734   0.45456   0.46020   0.46837   0.47703
 Alpha virt. eigenvalues --    0.47787   0.48607   0.49066   0.49460   0.50836
 Alpha virt. eigenvalues --    0.53469   0.55225   0.56132   0.56930   0.60060
 Alpha virt. eigenvalues --    0.60232   0.63760   0.64776   0.65522   0.67553
 Alpha virt. eigenvalues --    0.67817   0.68623   0.69056   0.70103   0.70662
 Alpha virt. eigenvalues --    0.71126   0.72793   0.73184   0.73902   0.74835
 Alpha virt. eigenvalues --    0.75214   0.75707   0.75886   0.77821   0.78403
 Alpha virt. eigenvalues --    0.78974   0.79852   0.80151   0.81116   0.82037
 Alpha virt. eigenvalues --    0.82206   0.82432   0.83527   0.84963   0.85260
 Alpha virt. eigenvalues --    0.86225   0.86359   0.86949   0.88242   0.88741
 Alpha virt. eigenvalues --    0.89314   0.90048   0.91689   0.91847   0.92844
 Alpha virt. eigenvalues --    0.93195   0.93780   0.94858   0.95430   0.95832
 Alpha virt. eigenvalues --    0.95882   0.96327   0.96824   0.98129   0.99466
 Alpha virt. eigenvalues --    1.00031   1.00756   1.01049   1.01840   1.02664
 Alpha virt. eigenvalues --    1.02967   1.03196   1.03888   1.05082   1.05838
 Alpha virt. eigenvalues --    1.07262   1.08627   1.09128   1.10020   1.10406
 Alpha virt. eigenvalues --    1.10964   1.13240   1.14456   1.15421   1.16362
 Alpha virt. eigenvalues --    1.17253   1.18098   1.19699   1.21331   1.22761
 Alpha virt. eigenvalues --    1.23003   1.25252   1.26291   1.27076   1.27861
 Alpha virt. eigenvalues --    1.28391   1.29752   1.31150   1.33541   1.38013
 Alpha virt. eigenvalues --    1.38184   1.38671   1.41811   1.42495   1.42886
 Alpha virt. eigenvalues --    1.46433   1.48590   1.52127   1.54449   1.55274
 Alpha virt. eigenvalues --    1.55580   1.55884   1.56827   1.58787   1.60165
 Alpha virt. eigenvalues --    1.60770   1.61244   1.61987   1.63512   1.64049
 Alpha virt. eigenvalues --    1.64279   1.64671   1.65086   1.65349   1.67024
 Alpha virt. eigenvalues --    1.69778   1.70787   1.73923   1.75071   1.77161
 Alpha virt. eigenvalues --    1.77584   1.78512   1.78972   1.80143   1.81329
 Alpha virt. eigenvalues --    1.82907   1.84356   1.85224   1.86876   1.87765
 Alpha virt. eigenvalues --    1.89901   1.92464   1.94495   1.95729   1.96700
 Alpha virt. eigenvalues --    1.97008   1.97692   1.98738   1.99163   1.99770
 Alpha virt. eigenvalues --    2.01031   2.01220   2.01933   2.02207   2.03088
 Alpha virt. eigenvalues --    2.05011   2.05959   2.06311   2.06339   2.07347
 Alpha virt. eigenvalues --    2.08279   2.09283   2.12254   2.12825   2.13291
 Alpha virt. eigenvalues --    2.15904   2.17197   2.17893   2.19788   2.21615
 Alpha virt. eigenvalues --    2.22206   2.23265   2.26813   2.29300   2.31308
 Alpha virt. eigenvalues --    2.32403   2.35317   2.38055   2.38855   2.39037
 Alpha virt. eigenvalues --    2.39419   2.40421   2.42615   2.46741   2.48612
 Alpha virt. eigenvalues --    2.49985   2.51104   2.53162   2.56411   2.60029
 Alpha virt. eigenvalues --    2.66276   2.67504   2.72585   2.73759   2.75380
 Alpha virt. eigenvalues --    2.75868   2.78551   2.80557   2.81265   2.85685
 Alpha virt. eigenvalues --    2.86252   2.89265   2.89427   2.91170   2.91906
 Alpha virt. eigenvalues --    2.92458   2.93742   2.94131   3.00936   3.03122
 Alpha virt. eigenvalues --    3.10674   3.16457   3.17258   3.35277   3.36309
 Alpha virt. eigenvalues --    3.41504   3.54488   3.55078   3.55832   3.57045
 Alpha virt. eigenvalues --    3.67725   3.81460   7.95729   7.96476   7.99583
 Alpha virt. eigenvalues --    8.05159  17.40431  17.42401  17.43069  17.44665
 Alpha virt. eigenvalues --   17.50746  17.53613  17.55832  17.56127  17.57056
 Alpha virt. eigenvalues --   17.59616  17.63860  17.67094  51.35216  51.40816
 Alpha virt. eigenvalues --   51.47303 189.12972 189.14171 189.17388 189.25007
 Alpha virt. eigenvalues --  195.52231
          Condensed to atoms (all electrons):
              1          2          3          4          5          6
     1  W   14.461769  -0.173955   0.016642  -0.007135  -0.304884  -0.009546
     2  S   -0.173955  16.289910   0.321971  -0.110798  -0.162034  -0.056418
     3  C    0.016642   0.321971   5.191585   0.460671  -0.075570   0.268035
     4  C   -0.007135  -0.110798   0.460671   5.320127   0.275948  -0.024283
     5  S   -0.304884  -0.162034  -0.075570   0.275948  16.464471   0.007573
     6  C   -0.009546  -0.056418   0.268035  -0.024283   0.007573   4.694565
     7  N   -0.006417   0.028278  -0.086263  -0.000458   0.000418   0.903715
     8  C   -0.003585  -0.001950  -0.016011   0.275745  -0.045238  -0.012341
     9  N   -0.005825   0.001212  -0.000139  -0.088666   0.031153  -0.001266
    10  S   -0.191317  -0.254757  -0.000665   0.000648   0.207514  -0.000230
    11  C    0.001739   0.007370   0.000001   0.000000  -0.001986   0.000000
    12  C   -0.003386  -0.000732  -0.000023  -0.000001  -0.000063   0.000000
    13  S   -0.240960   0.042582  -0.003042  -0.004221  -0.263946   0.001368
    14  C   -0.001892  -0.001553   0.000000   0.000000   0.000654   0.000000
    15  N   -0.001932   0.000070   0.000000   0.000000  -0.000002   0.000000
    16  C    0.007979  -0.000760   0.000000   0.000000   0.001309   0.000000
    17  N   -0.005013   0.000067   0.000000   0.000000   0.000036   0.000000
    18  O   -0.014801  -0.004462   0.000000   0.000000   0.002993   0.000000
    19  H   -0.008609   0.001292   0.000000   0.000000  -0.000472   0.000000
    20  C    0.193366  -0.000489  -0.000015   0.002011   0.046164  -0.000004
    21  H    0.005914  -0.000189  -0.000002   0.000054  -0.026196   0.000000
    22  C    0.127570   0.004887  -0.000010  -0.000133  -0.002047   0.000000
    23  H   -0.019274   0.003734   0.000000   0.000000  -0.001653   0.000000
    24  H   -0.027287  -0.001938   0.000003   0.000000   0.000720   0.000000
    25  O    0.173544  -0.021937  -0.000036   0.000086   0.015269  -0.000006
    26  H   -0.014906   0.007900  -0.000083  -0.000031  -0.000725   0.000001
              7          8          9         10         11         12
     1  W   -0.006417  -0.003585  -0.005825  -0.191317   0.001739  -0.003386
     2  S    0.028278  -0.001950   0.001212  -0.254757   0.007370  -0.000732
     3  C   -0.086263  -0.016011  -0.000139  -0.000665   0.000001  -0.000023
     4  C   -0.000458   0.275745  -0.088666   0.000648   0.000000  -0.000001
     5  S    0.000418  -0.045238   0.031153   0.207514  -0.001986  -0.000063
     6  C    0.903715  -0.012341  -0.001266  -0.000230   0.000000   0.000000
     7  N    6.525086  -0.001328  -0.000388   0.000034   0.000000   0.000000
     8  C   -0.001328   4.677798   0.899600   0.000619   0.000000   0.000000
     9  N   -0.000388   0.899600   6.532909   0.000006   0.000000   0.000000
    10  S    0.000034   0.000619   0.000006  16.628971   0.250388  -0.077186
    11  C    0.000000   0.000000   0.000000   0.250388   5.219278   0.463096
    12  C    0.000000   0.000000   0.000000  -0.077186   0.463096   5.238450
    13  S    0.000139  -0.000215  -0.000018  -0.303873  -0.043300   0.284190
    14  C    0.000000   0.000000   0.000000  -0.053172   0.279828  -0.016299
    15  N    0.000000   0.000000   0.000000   0.025075  -0.087623  -0.000023
    16  C    0.000000   0.000000   0.000000   0.005885  -0.014620   0.285956
    17  N    0.000000   0.000000   0.000000   0.000190  -0.000081  -0.086988
    18  O    0.000000   0.000000   0.000000   0.025639  -0.000003   0.000040
    19  H    0.000000   0.000000   0.000000   0.027874  -0.000826  -0.000095
    20  C    0.000000  -0.000021   0.000000   0.020387   0.000210   0.000116
    21  H    0.000000  -0.000001   0.000000  -0.001387   0.000000   0.000015
    22  C    0.000000   0.000000   0.000000  -0.055521   0.000148   0.000238
    23  H    0.000000   0.000000   0.000000  -0.024388  -0.000499   0.000196
    24  H    0.000000   0.000000   0.000000   0.015381   0.000029   0.000009
    25  O    0.000000  -0.000001   0.000000  -0.038947   0.000596  -0.000018
    26  H    0.000000   0.000000   0.000000  -0.009374   0.000085  -0.000002
             13         14         15         16         17         18
     1  W   -0.240960  -0.001892  -0.001932   0.007979  -0.005013  -0.014801
     2  S    0.042582  -0.001553   0.000070  -0.000760   0.000067  -0.004462
     3  C   -0.003042   0.000000   0.000000   0.000000   0.000000   0.000000
     4  C   -0.004221   0.000000   0.000000   0.000000   0.000000   0.000000
     5  S   -0.263946   0.000654  -0.000002   0.001309   0.000036   0.002993
     6  C    0.001368   0.000000   0.000000   0.000000   0.000000   0.000000
     7  N    0.000139   0.000000   0.000000   0.000000   0.000000   0.000000
     8  C   -0.000215   0.000000   0.000000   0.000000   0.000000   0.000000
     9  N   -0.000018   0.000000   0.000000   0.000000   0.000000   0.000000
    10  S   -0.303873  -0.053172   0.025075   0.005885   0.000190   0.025639
    11  C   -0.043300   0.279828  -0.087623  -0.014620  -0.000081  -0.000003
    12  C    0.284190  -0.016299  -0.000023   0.285956  -0.086988   0.000040
    13  S   16.401052  -0.001890   0.000660  -0.070662   0.029822  -0.011258
    14  C   -0.001890   4.681296   0.908361  -0.014376  -0.001419   0.000003
    15  N    0.000660   0.908361   6.529650  -0.001596  -0.000426   0.000000
    16  C   -0.070662  -0.014376  -0.001596   4.677328   0.898074   0.000000
    17  N    0.029822  -0.001419  -0.000426   0.898074   6.538392   0.000000
    18  O   -0.011258   0.000003   0.000000   0.000000   0.000000   8.114235
    19  H   -0.002788  -0.000051   0.000001  -0.000001   0.000000   0.264175
    20  C   -0.053944  -0.000001   0.000000   0.000004   0.000000  -0.030708
    21  H   -0.001268   0.000000   0.000000   0.000000   0.000000   0.000096
    22  C    0.010950  -0.000021   0.000000   0.000009   0.000000   0.102338
    23  H    0.016828  -0.000082   0.000000  -0.000107  -0.000001  -0.046094
    24  H   -0.000823   0.000002   0.000000   0.000000   0.000000   0.189081
    25  O   -0.000116   0.000000   0.000000   0.000000   0.000000  -0.073813
    26  H    0.005796   0.000000   0.000000   0.000000   0.000000   0.001016
             19         20         21         22         23         24
     1  W   -0.008609   0.193366   0.005914   0.127570  -0.019274  -0.027287
     2  S    0.001292  -0.000489  -0.000189   0.004887   0.003734  -0.001938
     3  C    0.000000  -0.000015  -0.000002  -0.000010   0.000000   0.000003
     4  C    0.000000   0.002011   0.000054  -0.000133   0.000000   0.000000
     5  S   -0.000472   0.046164  -0.026196  -0.002047  -0.001653   0.000720
     6  C    0.000000  -0.000004   0.000000   0.000000   0.000000   0.000000
     7  N    0.000000   0.000000   0.000000   0.000000   0.000000   0.000000
     8  C    0.000000  -0.000021  -0.000001   0.000000   0.000000   0.000000
     9  N    0.000000   0.000000   0.000000   0.000000   0.000000   0.000000
    10  S    0.027874   0.020387  -0.001387  -0.055521  -0.024388   0.015381
    11  C   -0.000826   0.000210   0.000000   0.000148  -0.000499   0.000029
    12  C   -0.000095   0.000116   0.000015   0.000238   0.000196   0.000009
    13  S   -0.002788  -0.053944  -0.001268   0.010950   0.016828  -0.000823
    14  C   -0.000051  -0.000001   0.000000  -0.000021  -0.000082   0.000002
    15  N    0.000001   0.000000   0.000000   0.000000   0.000000   0.000000
    16  C   -0.000001   0.000004   0.000000   0.000009  -0.000107   0.000000
    17  N    0.000000   0.000000   0.000000   0.000000  -0.000001   0.000000
    18  O    0.264175  -0.030708   0.000096   0.102338  -0.046094   0.189081
    19  H    0.381318   0.004723  -0.000110  -0.015771   0.000296  -0.011492
    20  C    0.004723   5.327626   0.367806   0.394508  -0.036597  -0.002136
    21  H   -0.000110   0.367806   0.576097  -0.034842  -0.001500  -0.000493
    22  C   -0.015771   0.394508  -0.034842   5.170820   0.391673  -0.025793
    23  H    0.000296  -0.036597  -0.001500   0.391673   0.580338   0.003194
    24  H   -0.011492  -0.002136  -0.000493  -0.025793   0.003194   0.291911
    25  O    0.000282  -0.011046   0.000185  -0.015316  -0.000062   0.105164
    26  H   -0.000304   0.001769   0.000001   0.001844   0.000065  -0.006807
             25         26
     1  W    0.173544  -0.014906
     2  S   -0.021937   0.007900
     3  C   -0.000036  -0.000083
     4  C    0.000086  -0.000031
     5  S    0.015269  -0.000725
     6  C   -0.000006   0.000001
     7  N    0.000000   0.000000
     8  C   -0.000001   0.000000
     9  N    0.000000   0.000000
    10  S   -0.038947  -0.009374
    11  C    0.000596   0.000085
    12  C   -0.000018  -0.000002
    13  S   -0.000116   0.005796
    14  C    0.000000   0.000000
    15  N    0.000000   0.000000
    16  C    0.000000   0.000000
    17  N    0.000000   0.000000
    18  O   -0.073813   0.001016
    19  H    0.000282  -0.000304
    20  C   -0.011046   0.001769
    21  H    0.000185   0.000001
    22  C   -0.015316   0.001844
    23  H   -0.000062   0.000065
    24  H    0.105164  -0.006807
    25  O    8.296326   0.273482
    26  H    0.273482   0.384881
 Mulliken atomic charges:
              1
     1  W    0.052201
     2  S    0.082697
     3  C   -0.077049
     4  C   -0.099564
     5  S   -0.169405
     6  C    0.228836
     7  N   -0.362816
     8  C    0.226929
     9  N   -0.368579
    10  S   -0.197794
    11  C   -0.073828
    12  C   -0.087489
    13  S    0.208939
    14  C    0.220612
    15  N   -0.372215
    16  C    0.225577
    17  N   -0.372653
    18  O   -0.518477
    19  H    0.360556
    20  C   -0.223726
    21  H    0.115819
    22  C   -0.055531
    23  H    0.133932
    24  H    0.471275
    25  O   -0.703638
    26  H    0.355390
 Sum of Mulliken charges=  -1.00000
 Atomic charges with hydrogens summed into heavy atoms:
              1
     1  W    0.052201
     2  S    0.082697
     3  C   -0.077049
     4  C   -0.099564
     5  S   -0.169405
     6  C    0.228836
     7  N   -0.362816
     8  C    0.226929
     9  N   -0.368579
    10  S   -0.197794
    11  C   -0.073828
    12  C   -0.087489
    13  S    0.208939
    14  C    0.220612
    15  N   -0.372215
    16  C    0.225577
    17  N   -0.372653
    18  O    0.313353
    19  H    0.000000
    20  C   -0.107907
    21  H    0.000000
    22  C    0.078401
    23  H    0.000000
    24  H    0.000000
    25  O   -0.348248
    26  H    0.000000
 Sum of Mulliken charges=  -1.00000
 APT atomic charges:
              1
     1  W    0.911112
     2  S   -0.368195
     3  C    0.127942
     4  C   -0.076283
     5  S   -0.212161
     6  C    0.233053
     7  N   -0.386846
     8  C    0.303442
     9  N   -0.431402
    10  S   -0.451922
    11  C    0.055961
    12  C    0.102072
    13  S   -0.349407
    14  C    0.316480
    15  N   -0.446155
    16  C    0.277298
    17  N   -0.418144
    18  O   -0.755074
    19  H    0.280738
    20  C   -0.218947
    21  H    0.058429
    22  C    0.419722
    23  H   -0.030127
    24  H    0.465425
    25  O   -0.669989
    26  H    0.262978
 Sum of APT charges=  -1.00000
 APT Atomic charges with hydrogens summed into heavy atoms:
              1
     1  W    0.911112
     2  S   -0.368195
     3  C    0.127942
     4  C   -0.076283
     5  S   -0.212161
     6  C    0.233053
     7  N   -0.386846
     8  C    0.303442
     9  N   -0.431402
    10  S   -0.451922
    11  C    0.055961
    12  C    0.102072
    13  S   -0.349407
    14  C    0.316480
    15  N   -0.446155
    16  C    0.277298
    17  N   -0.418144
    18  O   -0.008911
    19  H    0.000000
    20  C   -0.160518
    21  H    0.000000
    22  C    0.389595
    23  H    0.000000
    24  H    0.000000
    25  O   -0.407011
    26  H    0.000000
 Sum of APT charges=  -1.00000
 Electronic spatial extent (au):  <R**2>=  8558.5745
 Charge=    -1.0000 electrons
 Dipole moment (field-independent basis, Debye):
    X=    -1.3697    Y=     9.1473    Z=     0.5170  Tot=     9.2637
 Quadrupole moment (field-independent basis, Debye-Ang):
   XX=  -272.6128   YY=  -196.2781   ZZ=  -192.1675
   XY=    -9.3004   XZ=     0.9258   YZ=     1.8850
 Traceless Quadrupole moment (field-independent basis, Debye-Ang):
   XX=   -52.2600   YY=    24.0747   ZZ=    28.1853
   XY=    -9.3004   XZ=     0.9258   YZ=     1.8850
 Octapole moment (field-independent basis, Debye-Ang**2):
  XXX=   -53.1729  YYY=   163.0902  ZZZ=    -3.5030  XYY=    19.8651
  XXY=   262.1505  XXZ=   -17.9515  XZZ=   -12.5131  YZZ=   104.1319
  YYZ=    18.8281  XYZ=    37.8673
 Hexadecapole moment (field-independent basis, Debye-Ang**3):
 XXXX=-10769.7575 YYYY= -2905.0015 ZZZZ= -1968.5009 XXXY=   -98.5455
 XXXZ=   307.4930 YYYX=  -146.2995 YYYZ=   -29.3833 ZZZX=   -65.0169
 ZZZY=    34.1330 XXYY= -2199.6413 XXZZ= -2095.0613 YYZZ=  -845.0397
 XXYZ=    40.6800 YYXZ=  -205.4101 ZZXY=    -9.1226
 N-N= 2.316963782405D+03 E-N=-1.033536892938D+04  KE= 2.362038260025D+03
  Exact polarizability: 399.033 -10.326 248.646 -17.782  -4.180 252.338
 Approx polarizability: 665.670 -34.409 485.540 -72.969 -16.494 559.313
 No NMR shielding tensors so no spin-rotation constants.
 Leave Link  601 at Sat Mar 20 18:30:11 2010, MaxMem=   31457280 cpu:       0.0
 (Enter /opt/g03c02/g03/l701.exe)
 Compute integral second derivatives.
 ... and contract with generalized density number  0.
   1 Symmetry operations used in ECPInt.
 ECPInt:  NShTT=   10585 NPrTT=   51135 LenC2=   10560 LenP2D=   42320.
 LDataN:  DoStor=F MaxTD1= 9 Len=  602
 LDataN:  DoStor=T MaxTD1= 9 Len=  602
 Leave Link  701 at Sat Mar 20 18:30:45 2010, MaxMem=   31457280 cpu:       0.0
 (Enter /opt/g03c02/g03/l702.exe)
 L702 exits ... SP integral derivatives will be done elsewhere.
 Leave Link  702 at Sat Mar 20 18:30:46 2010, MaxMem=   31457280 cpu:       0.0
 (Enter /opt/g03c02/g03/l703.exe)
 Compute integral second derivatives, UseDBF=F.
 Integral derivatives from FoFDir, PRISM(SPDF).
 Symmetry not used in FoFDir.
 MinBra= 0 MaxBra= 2 Meth= 1.
 IRaf=       0 NMat=   1 IRICut=       1 DoRegI=T DoRafI=F ISym2E= 0 JSym2E=0.
 Defaulting to unpruned grid for atomic number  74.
 Defaulting to unpruned grid for atomic number  74.
 Defaulting to unpruned grid for atomic number  74.
 Defaulting to unpruned grid for atomic number  74.
 Leave Link  703 at Sat Mar 20 19:32:03 2010, MaxMem=   31457280 cpu:       0.0
 (Enter /opt/g03c02/g03/l716.exe)
 Dipole        =-5.38895622D-01 3.59881020D+00 2.03406125D-01
 Polarizability= 3.99033378D+02-1.03261462D+01 2.48645919D+02
                -1.77816054D+01-4.18027854D+00 2.52338316D+02
 Full mass-weighted force constant matrix:
 Low frequencies --- -483.3961    0.0008    0.0014    0.0018    6.7617    8.2803
 Low frequencies ---   13.1753   19.0220   29.5000
 ******    1 imaginary frequencies (negative Signs) ****** 
 Diagonal vibrational polarizability:
       83.7203992     271.4331912     102.7895163
 Harmonic frequencies (cm**-1), IR intensities (KM/Mole), Raman scattering
 activities (A**4/AMU), depolarization ratios for plane and unpolarized
 incident light, reduced masses (AMU), force constants (mDyne/A),
 and normal coordinates:
                     1                      2                      3
                     A                      A                      A
 Frequencies --  -483.3899                18.9065                29.4464
 Red. masses --     2.4855                14.2277                15.7481
 Frc consts  --     0.3422                 0.0030                 0.0080
 IR Inten    --    52.4822                 3.0258                 1.4976
 Atom AN      X      Y      Z        X      Y      Z        X      Y      Z
   1  74     0.00   0.01   0.01     0.01  -0.06   0.04     0.00  -0.07  -0.05
   2  16     0.00  -0.01   0.00     0.13   0.09   0.05    -0.08  -0.21  -0.10
   3   6     0.00   0.00   0.00     0.11   0.10   0.01     0.02  -0.01   0.01
   4   6     0.00   0.00   0.00     0.03   0.03  -0.03     0.09   0.10   0.07
   5  16     0.00   0.00   0.00    -0.05  -0.07  -0.05     0.06   0.03   0.03
   6   6     0.00   0.00   0.00     0.17   0.19   0.02     0.03   0.04   0.05
   7   7     0.00   0.00   0.00     0.23   0.26   0.02     0.04   0.08   0.08
   8   6     0.00   0.00   0.00     0.01   0.03  -0.07     0.19   0.30   0.17
   9   7     0.00   0.00   0.00     0.00   0.03  -0.11     0.29   0.47   0.26
  10  16     0.00   0.00   0.00     0.04  -0.10   0.06     0.03   0.01   0.02
  11   6     0.00   0.00   0.00    -0.06   0.06  -0.04    -0.04   0.04   0.06
  12   6     0.00   0.00   0.00    -0.05   0.05  -0.04    -0.12   0.05   0.02
  13  16     0.01  -0.01   0.01     0.05  -0.13   0.10    -0.15   0.02  -0.07
  14   6     0.00   0.00   0.00    -0.13   0.20  -0.14    -0.01   0.06   0.13
  15   7     0.00   0.00   0.00    -0.19   0.32  -0.22     0.01   0.08   0.20
  16   6     0.00   0.00   0.00    -0.12   0.18  -0.13    -0.20   0.09   0.05
  17   7     0.00   0.00   0.00    -0.18   0.28  -0.20    -0.27   0.14   0.07
  18   8    -0.10   0.14   0.09    -0.11  -0.13   0.01     0.11   0.00   0.00
  19   1    -0.04   0.01   0.10    -0.07  -0.17   0.04     0.10   0.03   0.02
  20   6     0.01   0.00  -0.06    -0.08  -0.09   0.01     0.02  -0.05  -0.04
  21   1     0.06   0.07   0.01    -0.12  -0.10  -0.02     0.03  -0.04  -0.03
  22   6     0.06  -0.16  -0.14    -0.07  -0.14   0.02     0.03  -0.01  -0.01
  23   1    -0.04   0.08   0.02    -0.07  -0.19   0.04     0.02   0.02   0.01
  24   1    -0.53   0.46  -0.33    -0.08  -0.07  -0.01     0.11  -0.04  -0.02
  25   8     0.07  -0.12  -0.02    -0.02  -0.01  -0.01     0.09  -0.08  -0.05
  26   1     0.45  -0.21  -0.07     0.01   0.03   0.00     0.09  -0.10  -0.06
                     4                      5                      6
                     A                      A                      A
 Frequencies --    49.9056                59.5066                91.9611
 Red. masses --    13.9707                10.6650                10.3289
 Frc consts  --     0.0205                 0.0223                 0.0515
 IR Inten    --     0.2896                 0.1674                 1.5688
 Atom AN      X      Y      Z        X      Y      Z        X      Y      Z
   1  74     0.00   0.00  -0.01     0.01   0.02  -0.01     0.02   0.02  -0.03
   2  16    -0.01   0.04   0.02     0.01   0.09   0.03    -0.06  -0.08  -0.07
   3   6     0.00   0.04   0.05    -0.02   0.01   0.02    -0.01   0.01   0.00
   4   6    -0.02  -0.07   0.01     0.02   0.04   0.04     0.03   0.04   0.02
   5  16    -0.02  -0.11  -0.04     0.04   0.06   0.03     0.07   0.12   0.02
   6   6     0.05   0.19   0.15    -0.11  -0.14  -0.02    -0.03   0.05   0.05
   7   7     0.10   0.36   0.25    -0.21  -0.31  -0.07    -0.06   0.11   0.15
   8   6    -0.05  -0.17   0.01     0.02   0.02   0.05     0.00  -0.08   0.02
   9   7    -0.08  -0.28   0.00     0.03   0.00   0.08    -0.04  -0.26   0.03
  10  16     0.02  -0.04  -0.01     0.10  -0.06   0.07     0.13  -0.12   0.05
  11   6     0.02  -0.05   0.00     0.07  -0.03   0.06     0.06  -0.02   0.00
  12   6    -0.04   0.05  -0.07     0.04   0.01   0.02     0.02   0.02  -0.03
  13  16    -0.08   0.11  -0.12     0.07  -0.06   0.06    -0.05   0.09  -0.14
  14   6     0.11  -0.21   0.12     0.10  -0.06   0.11     0.03   0.10   0.00
  15   7     0.20  -0.38   0.24     0.14  -0.10   0.17     0.00   0.28   0.00
  16   6    -0.09   0.14  -0.14    -0.05   0.14  -0.05     0.01  -0.04   0.05
  17   7    -0.15   0.25  -0.21    -0.14   0.28  -0.14     0.01  -0.13   0.16
  18   8     0.04   0.05   0.04    -0.23  -0.15  -0.16    -0.26  -0.25   0.14
  19   1     0.03   0.05   0.01    -0.17  -0.24  -0.13    -0.14  -0.47   0.15
  20   6     0.06   0.05   0.03    -0.07  -0.05  -0.07    -0.05   0.12   0.08
  21   1     0.08   0.06   0.04    -0.10  -0.03  -0.08    -0.06   0.27   0.15
  22   6     0.05   0.06   0.00    -0.09  -0.15  -0.11    -0.08  -0.06   0.03
  23   1     0.05   0.11  -0.02    -0.06  -0.26  -0.14    -0.04  -0.13  -0.03
  24   1     0.01   0.02   0.03    -0.20  -0.02  -0.16    -0.18  -0.13   0.08
  25   8     0.01  -0.04   0.02    -0.10   0.12  -0.10    -0.03  -0.03   0.02
  26   1     0.03  -0.06   0.01    -0.12   0.17  -0.09    -0.01  -0.10   0.00
                     7                      8                      9
                     A                      A                      A
 Frequencies --   107.0973               108.2809               116.3763
 Red. masses --    17.3281                 9.0733                12.5721
 Frc consts  --     0.1171                 0.0627                 0.1003
 IR Inten    --     1.9438                 2.6014                 4.7266
 Atom AN      X      Y      Z        X      Y      Z        X      Y      Z
   1  74    -0.01  -0.02   0.00     0.03   0.01   0.03     0.00  -0.01   0.03
   2  16    -0.07  -0.22  -0.01     0.07   0.02   0.04    -0.07  -0.16  -0.02
   3   6     0.03   0.00   0.07     0.06  -0.03   0.02    -0.04  -0.11   0.00
   4   6     0.09   0.16   0.13     0.04  -0.04   0.01    -0.04  -0.08   0.02
   5  16     0.17   0.36   0.27     0.02  -0.08   0.00    -0.03  -0.07   0.03
   6   6     0.10   0.02   0.01     0.12  -0.03  -0.06     0.01  -0.03   0.02
   7   7     0.25   0.10  -0.08     0.25  -0.05  -0.22     0.09   0.09   0.04
   8   6    -0.05  -0.02  -0.04     0.06  -0.03   0.03    -0.04   0.01  -0.04
   9   7    -0.24  -0.26  -0.29     0.09  -0.02   0.09    -0.09   0.16  -0.19
  10  16    -0.08   0.08  -0.03    -0.12   0.11  -0.06    -0.04   0.08  -0.03
  11   6    -0.02   0.00   0.01    -0.09   0.07  -0.04    -0.03   0.05  -0.01
  12   6     0.01  -0.03   0.04    -0.08   0.08  -0.04    -0.01   0.04   0.00
  13  16     0.03  -0.08   0.06    -0.10   0.12  -0.07    -0.01   0.04   0.02
  14   6    -0.02  -0.04  -0.01    -0.06  -0.02  -0.02     0.01   0.11   0.13
  15   7    -0.02  -0.11  -0.05    -0.04  -0.14  -0.03     0.10   0.27   0.39
  16   6    -0.05   0.02   0.03    -0.06   0.01   0.03     0.13   0.01  -0.11
  17   7    -0.17   0.10   0.05    -0.09  -0.06   0.15     0.42  -0.03  -0.35
  18   8     0.09   0.07  -0.20    -0.22  -0.18  -0.11    -0.11  -0.08  -0.14
  19   1     0.01   0.21  -0.21    -0.16  -0.38  -0.16    -0.09  -0.15  -0.16
  20   6     0.02  -0.11  -0.09     0.13   0.05   0.07     0.06  -0.02   0.01
  21   1     0.05  -0.13  -0.08     0.22   0.09   0.14     0.10  -0.05   0.02
  22   6     0.03  -0.04  -0.08     0.05  -0.07  -0.12     0.02  -0.06  -0.10
  23   1     0.02  -0.09  -0.05     0.14  -0.12  -0.28     0.07  -0.11  -0.18
  24   1     0.04   0.03  -0.13    -0.27  -0.03  -0.10    -0.13  -0.01  -0.11
  25   8    -0.05   0.02  -0.04    -0.14   0.01   0.02    -0.09   0.03   0.00
  26   1    -0.15   0.04  -0.03    -0.21  -0.02   0.02    -0.19   0.03   0.00
                    10                     11                     12
                     A                      A                      A
 Frequencies --   117.0399               126.1065               133.7517
 Red. masses --    12.8023                16.0503                11.5976
 Frc consts  --     0.1033                 0.1504                 0.1222
 IR Inten    --     4.0797                 0.5062                 3.1419
 Atom AN      X      Y      Z        X      Y      Z        X      Y      Z
   1  74     0.05  -0.01   0.02    -0.03  -0.05   0.00     0.02  -0.03  -0.04
   2  16     0.02   0.01   0.00     0.17   0.27   0.15     0.05   0.08  -0.03
   3   6     0.03  -0.03   0.01     0.13   0.17   0.12     0.04   0.07  -0.05
   4   6     0.03  -0.04   0.01     0.09   0.12   0.10     0.05   0.08  -0.05
   5  16     0.01  -0.05   0.01     0.06   0.08   0.10     0.05   0.11  -0.03
   6   6    -0.08  -0.03   0.14     0.05   0.00   0.06    -0.02   0.04  -0.01
   7   7    -0.31  -0.03   0.40    -0.06  -0.24  -0.05    -0.15  -0.01   0.08
   8   6    -0.02   0.08  -0.16     0.03   0.05   0.00     0.05   0.01  -0.02
   9   7    -0.16   0.34  -0.51    -0.06   0.00  -0.14     0.05  -0.10   0.04
  10  16    -0.02   0.04  -0.01     0.01  -0.14  -0.13    -0.20   0.22  -0.14
  11   6    -0.01   0.03  -0.02    -0.04  -0.09  -0.12    -0.13   0.10  -0.06
  12   6    -0.01   0.04  -0.02    -0.08  -0.06  -0.15    -0.05   0.00   0.01
  13  16    -0.02   0.04  -0.04    -0.10   0.05  -0.17     0.05  -0.14   0.14
  14   6    -0.01  -0.03  -0.05    -0.01   0.04   0.04    -0.07   0.03   0.03
  15   7    -0.02  -0.14  -0.14     0.07   0.30   0.33     0.02  -0.06   0.21
  16   6    -0.05   0.02   0.05    -0.08  -0.11  -0.11    -0.02   0.00  -0.02
  17   7    -0.15   0.00   0.18    -0.09  -0.17  -0.02     0.02   0.03  -0.09
  18   8    -0.07  -0.11  -0.05     0.12   0.15  -0.02    -0.07  -0.20   0.27
  19   1    -0.03  -0.22  -0.06     0.00   0.30  -0.11     0.03  -0.41   0.28
[...]
 00001150,-0.00003534,0.00005283,-0.00003105,0.00003429,-0.00005868,0.0
 0003280,0.00008588,0.00007009,-0.00002551,-0.00004885,-0.00228148,0.00
 091971,-0.00122314,0.00015578,-0.00031068,0.00073366,0.00059784,-0.000
 07785,-0.00058532,-0.00044638,0.00018847,-0.00013254,0.00027735,-0.000
 15433,-0.00010420,-0.00025704,0.00012793,0.00005852,0.00000839,-0.0000
 7063,-0.00000146,-0.00004734,0.00001299,-0.00000374,-0.30754814,-0.138
 81643,0.13709628,0.33485773,0.00341744,0.00061769,0.00027187,-0.000077
 86,0.00008975,-0.00035977,-0.00004893,-0.00021335,-0.00003770,0.000051
 41,0.00023468,0.00010178,-0.00040195,-0.00015839,0.00026287,-0.0000086
 6,-0.00001085,0.00004484,-0.00003363,0.00001733,-0.00003566,0.00010423
 ,-0.00000380,-0.00002723,-0.00008586,0.00000729,0.00002888,-0.00067316
 ,0.00318852,0.00036396,-0.00236896,-0.00139645,-0.00120482,0.00192390,
 0.00114997,0.00055335,-0.00132071,-0.00054787,-0.00076539,0.00034736,0
 .00012048,-0.00005464,-0.00006965,-0.00004933,0.00001767,-0.00061309,-
 0.00096890,-0.00042518,0.00038079,0.00052654,0.00037065,-0.16567568,-0
 .10561573,0.07709095,0.14563896,0.09494971,-0.00194572,0.00161106,-0.0
 0018718,0.00018822,-0.00002259,-0.00036650,0.00009727,-0.00001195,0.00
 011949,0.00002699,0.00000062,-0.00002864,0.00025124,-0.00007672,0.0000
 2608,0.00004246,0.00002016,-0.00001635,-0.00000039,-0.00000580,0.00000
 406,0.00001151,-0.00003846,-0.00000296,0.00000285,0.00001040,-0.000002
 40,-0.00030335,-0.00082508,-0.00068363,0.00135550,-0.00037251,0.000144
 57,-0.00109472,-0.00066143,-0.00002327,0.00041963,-0.00007330,-0.00006
 220,-0.00005463,-0.00005795,0.00004532,-0.00001661,0.00001021,-0.00005
 061,0.00021200,0.00045494,0.00008558,-0.00017004,-0.00023360,-0.000161
 32,0.15054237,0.07336782,-0.11833023,-0.15348636,-0.06662412,0.1236627
 2,-0.02292513,-0.01819839,0.01563860,-0.00079443,0.00202089,-0.0006218
 8,-0.00022163,0.00176576,-0.00077798,0.00022170,0.00020087,0.00267605,
 -0.01199247,0.01439065,-0.00745350,0.00035296,-0.00088338,-0.00022460,
 -0.00029468,0.00036930,-0.00017519,-0.00105821,0.00015023,-0.00061115,
 0.00017047,-0.00009556,0.00022328,-0.00193013,-0.00064719,-0.00283974,
 0.00078728,0.00161866,0.00058873,-0.00183081,-0.00011519,-0.00036750,0
 .00447136,-0.00160573,0.00460944,-0.00043925,-0.00044750,0.00036662,0.
 00032801,0.00008266,-0.00017386,0.00034422,0.00031562,0.00030408,-0.00
 008958,-0.00014677,-0.00015560,-0.01256490,0.02160123,0.03135046,-0.00
 144170,0.00221938,0.00096906,0.49422449,-0.01459090,-0.10529831,0.0833
 8060,0.00704040,-0.00397560,0.00201126,-0.00194405,0.00022865,0.001864
 73,0.00042318,0.00151771,-0.00150940,0.00956389,-0.00650133,0.00245858
 ,0.00083542,-0.00029344,0.00008085,-0.00017924,0.00014179,-0.00013682,
 0.00019155,-0.00003612,-0.00015676,0.00002347,0.00000930,0.00000409,0.
 00181575,0.00165704,0.00449953,-0.00212705,-0.00272782,-0.00214754,0.0
 0213446,0.00051251,0.00265364,-0.00474226,-0.01087939,-0.00261066,0.00
 114754,0.00089498,-0.00083684,-0.00076267,-0.00021765,0.00041654,-0.00
 018315,-0.00015329,-0.00000902,0.00005316,0.00009854,0.00002443,0.0190
 5599,0.00303560,-0.01726576,0.00165177,-0.00376086,-0.00410809,0.06477
 042,0.23012842,0.00494947,0.09616989,-0.13935244,-0.00599775,0.0018284
 7,0.00072550,0.00121238,0.00032470,-0.00184462,0.00122119,-0.00071986,
 0.00034198,-0.00189589,-0.00092775,0.00519605,-0.00100616,0.00037411,0
 .00039873,0.00017940,-0.00008798,0.00000340,-0.00001324,-0.00018614,0.
 00049086,0.00005131,0.00006966,-0.00020904,0.00166332,0.00163115,-0.00
 063378,-0.00129764,-0.00075445,-0.00019170,0.00298979,-0.00054065,0.00
 002346,-0.00241140,-0.00268237,0.00472771,0.00081612,0.00042339,-0.000
 44238,-0.00038488,-0.00012818,0.00023367,-0.00021650,-0.00042420,-0.00
 032504,0.00015785,0.00023480,0.00016376,0.01460281,0.00884930,-0.00689
 084,0.00074404,-0.00308637,-0.00408119,-0.26563786,-0.19892145,0.48199
 982,0.00346578,0.00127501,-0.00164663,-0.00045208,0.00042952,0.0000720
 9,0.00008461,-0.00038670,-0.00014097,-0.00067355,-0.00007398,0.0003673
 1,-0.00027728,0.00034531,-0.00166335,-0.00019076,0.00004730,0.00010232
 ,0.00005734,-0.00003586,0.00000582,0.00014192,0.00015121,0.00001062,-0
 .00006425,-0.00002993,0.00001428,0.00078674,-0.00081366,-0.00037926,0.
 00015278,0.00048540,0.00044327,0.00006758,-0.00002634,-0.00045442,0.00
 019983,0.00077944,0.00044437,-0.00001148,-0.00003230,0.00011402,0.0000
 3544,0.00001639,-0.00004180,0.00005314,0.00000164,0.00002353,-0.000021
 40,-0.00001244,-0.00002354,0.00023409,-0.00155128,-0.00016262,0.000209
 78,0.00018196,0.00010691,-0.09910431,-0.04579530,0.11257713,0.10396448
 ,-0.00280978,-0.00726542,0.01789651,0.00056031,0.00073830,-0.00185712,
 -0.00015640,-0.00032574,0.00065908,0.00006167,0.00029064,-0.00045667,-
 0.00050669,-0.00111237,-0.00046784,0.00024175,0.00011044,-0.00023542,-
 0.00001453,-0.00005669,0.00006054,0.00003520,0.00018954,0.00004343,-0.
 00000016,-0.00005674,-0.00001081,-0.00073168,-0.00055094,-0.00153743,0
 .00028270,0.00104971,0.00103286,-0.00027015,-0.00039915,-0.00069619,0.
 00061376,0.00177951,0.00054054,-0.00028014,-0.00021823,0.00014068,0.00
 012361,0.00004667,-0.00008061,0.00013742,0.00003839,0.00010052,-0.0000
 6022,-0.00005131,-0.00006485,0.00057843,-0.00026333,-0.00206103,0.0002
 5106,-0.00027992,-0.00033532,-0.05796802,-0.06910869,0.10097566,0.0525
 9377,0.06935466,0.00533670,0.00052071,0.00115969,0.00050601,0.00036300
 ,-0.00066733,-0.00004982,-0.00072254,0.00057631,-0.00074056,0.00006542
 ,-0.00071271,-0.00038100,-0.00036402,0.00013118,0.00008116,0.00014313,
 0.00002542,0.00001761,-0.00007399,0.00003268,0.00025254,0.00013018,0.0
 0007566,-0.00008145,-0.00002896,0.00000478,0.00094014,-0.00013787,-0.0
 0138670,-0.00017681,0.00018064,0.00060595,0.00060903,-0.00014106,-0.00
 051668,-0.00056119,0.00113478,0.00043091,0.00002759,-0.00001595,0.0000
 8285,0.00001978,0.00001591,-0.00002804,-0.00006046,-0.00015253,-0.0000
 8102,0.00005154,0.00007642,0.00006220,0.00011798,-0.00032235,-0.000960
 72,0.00025247,0.00004316,-0.00028030,0.12501958,0.10217336,-0.23313855
 ,-0.12758930,-0.10736059,0.23434508,-0.06979520,0.05807046,-0.03409187
 ,0.00139501,0.00251402,-0.00870982,0.00160104,-0.00216650,0.00157869,0
 .00049870,0.00306907,0.00112481,0.00021454,-0.00373261,-0.00181101,-0.
 00040640,0.00010957,-0.00072297,0.00030488,-0.00019899,0.00037892,0.00
 019732,-0.00017221,0.00012672,-0.00001465,0.00003261,-0.00001324,0.003
 74856,-0.00267173,0.00934062,-0.00357160,-0.00110225,-0.00080661,0.004
 32388,0.00061010,-0.00026770,-0.00506172,-0.00585879,-0.00500719,0.002
 30172,0.00104862,-0.00061226,-0.00137124,-0.00017506,0.00051209,-0.000
 18136,-0.00055612,0.00016910,-0.00009671,0.00014597,-0.00003275,-0.051
 82892,-0.04793945,-0.05781323,-0.00461440,0.01312280,0.01994247,-0.327
 09876,-0.04241477,0.14780744,-0.00866746,0.00682415,-0.00388332,0.7234
 2278,0.02396774,-0.03269833,0.01805003,0.00421681,-0.00461305,0.004651
 18,-0.00215343,0.00118881,0.00088674,0.00182865,-0.00062706,-0.0008262
 0,0.00060548,-0.00034771,0.00287607,0.00060138,-0.00109368,0.00018076,
 -0.00032245,0.00041050,-0.00030695,0.00000422,-0.00022922,-0.00020306,
 -0.00005151,0.00008454,0.00000726,0.00109159,-0.00713206,0.00743708,0.
 00297741,0.00087338,-0.00149865,-0.00287532,0.00043499,-0.00005932,0.0
 0436115,-0.00823710,0.00183066,-0.00081220,0.00016638,0.00024960,0.000
 65639,-0.00003703,-0.00024444,0.00038742,0.00075179,-0.00004721,-0.000
 05226,-0.00025662,-0.00010316,-0.01190680,-0.01911691,0.02400460,0.004
 49262,0.01033832,0.00359754,-0.02618868,-0.03915484,-0.00186833,-0.008
 17300,0.00625247,0.00424315,0.06242137,0.12828832,-0.01754681,0.003511
 79,-0.01271954,-0.00593426,0.00375567,0.00016346,0.00064768,0.00153154
 ,-0.00282698,0.00123489,0.00064834,0.00262754,-0.00474727,-0.00027691,
 0.00107203,-0.00057357,-0.00125092,0.00009538,-0.00023333,0.00046374,-
 0.00028264,-0.00018724,-0.00005049,-0.00017996,-0.00018446,0.00004000,
 0.00015025,-0.00028272,0.00002825,-0.00795673,0.00184119,0.00213178,0.
 00068925,-0.00410754,-0.00033318,-0.00048173,0.00707897,-0.00029560,0.
 00358423,-0.00139786,-0.00127884,0.00073972,0.00084677,0.00021824,-0.0
 0045262,0.00067984,0.00048426,0.00025819,-0.00017711,-0.00022321,-0.00
 022029,-0.01160449,0.01840215,0.00525836,0.00636041,-0.00370116,-0.009
 09113,0.08776303,0.02724963,-0.10618513,0.01795820,-0.00656657,-0.0002
 7673,0.04961676,-0.01879037,0.25033825,-0.00553652,-0.00369532,0.00179
 396,0.00026328,0.00040300,0.00042967,-0.00023013,0.00014268,-0.0002459
 5,0.00030676,0.00015570,0.00025139,-0.00046719,0.00006306,-0.00017124,
 0.00000789,-0.00021133,0.00002684,-0.00007216,0.00009707,-0.00006371,0
 .00004955,0.00000650,-0.00006636,-0.00005980,0.00001046,0.00004360,0.0
 0060387,-0.00042824,-0.00031343,0.00036460,0.00006188,0.00002018,-0.00
 013607,0.00033547,-0.00007161,0.00077209,0.00014748,0.00096408,0.00002
 610,-0.00002689,0.00007814,0.00006426,0.00001809,-0.00003528,0.0000265
 0,0.00007131,-0.00005183,0.00003537,-0.00000110,0.00004367,0.00728984,
 0.00297540,0.00629649,0.00026862,-0.00017757,-0.00115757,-0.01884203,0
 .00299908,-0.01022088,0.00025896,-0.00012547,0.00005128,-0.27518117,-0
 .04034916,-0.11165099,0.29072112,0.01238251,0.00564252,0.00262358,-0.0
 0025034,-0.00152552,0.00119312,0.00000868,0.00022289,-0.00003667,-0.00
 022949,-0.00026988,-0.00009022,0.00036624,0.00053058,-0.00008096,0.000
 07659,0.00025106,0.00006406,0.00003756,-0.00008259,0.00002461,-0.00009
 506,-0.00003693,-0.00004090,0.00005634,-0.00000375,-0.00001073,-0.0009
 5133,0.00132475,-0.00051220,-0.00013194,-0.00039784,0.00012692,-0.0003
 0698,-0.00007603,0.00034827,-0.00032187,0.00074655,-0.00096637,-0.0001
 5015,-0.00007376,-0.00003251,0.00003075,0.00002152,-0.00002293,-0.0001
 1552,-0.00010142,0.00001272,0.00001253,0.00006150,0.00000300,-0.012490
 16,-0.01474088,-0.02456319,-0.00195146,0.00008365,0.00091061,-0.001275
 12,-0.00015995,-0.00206454,0.00013138,-0.00027938,-0.00025782,-0.03469
 466,-0.03088218,-0.01239072,0.03700517,0.04212926,-0.00531954,-0.00205
 206,-0.00292246,0.00017426,0.00037851,-0.00098022,0.00003468,-0.000170
 48,0.00047337,-0.00010553,0.00011494,-0.00040236,0.00034476,-0.0004467
 3,0.00024864,-0.00003624,0.00004421,-0.00005467,0.00003562,-0.00002764
 ,0.00003593,0.00000133,0.00002017,0.00005210,0.00001995,-0.00000397,-0
 .00002255,0.00015971,-0.00075034,0.00121190,0.00021747,0.00025315,-0.0
 0003182,0.00007389,0.00008089,0.00017145,0.00001706,0.00041623,-0.0004
 3100,0.00012265,0.00018110,-0.00005383,-0.00006148,-0.00004223,0.00004
 217,0.00007953,0.00011123,0.00007964,-0.00005067,-0.00007337,-0.000068
 43,-0.01203787,-0.01176690,-0.02205291,-0.00125957,-0.00122184,-0.0013
 1717,0.01776219,0.00331052,0.01100486,-0.00012643,0.00027396,0.0001591
 2,-0.11643931,-0.02182098,-0.08427599,0.11403726,0.03438629,0.09875190
 ,-0.00296738,0.02406910,0.01970249,0.00104078,-0.00178737,-0.00141187,
 -0.00113882,-0.00021134,0.00012724,0.00066046,-0.00040827,0.00013415,0
 .00074850,0.00018110,-0.00072199,0.00018338,-0.00005142,-0.00003234,-0
 .00002688,-0.00001378,0.00000416,-0.00051580,0.00034862,0.00025472,0.0
 0029184,-0.00012111,-0.00019242,0.00025453,0.00127685,0.00042645,-0.00
 119545,-0.00031269,-0.00044652,0.00034699,0.00025991,-0.00026799,-0.00
 052374,-0.00177108,0.00066181,0.00017863,-0.00012149,-0.00023423,-0.00
 021465,0.00009977,0.00008565,-0.00029902,-0.00043306,-0.00002255,0.000
 04237,0.00018298,0.00003186,-0.06353569,0.01471235,0.01774779,-0.02255
 570,0.00267601,-0.01300897,-0.00614214,0.00141573,-0.00087193,0.000015
 69,0.00119530,0.00091871,0.02369941,-0.02981081,-0.02717872,-0.0016318
 4,0.00476579,0.00405575,0.07056622,0.00879362,-0.01964210,-0.01572942,
 0.00054331,0.00076150,-0.00026604,-0.00010095,-0.00014209,0.00060838,-
 0.00071605,0.00035122,-0.00078270,-0.00061344,0.00011607,0.00125019,0.
 00015765,0.00007992,0.00018578,-0.00010572,0.00004636,-0.00010825,0.00
 041151,-0.00021556,-0.00029686,-0.00028933,0.00007231,0.00017807,0.000
 53691,-0.00151563,0.00133058,-0.00035907,0.00008352,-0.00079250,0.0004
 6995,0.00036828,0.00046307,-0.00037277,0.00053053,-0.00009877,0.000060
 35,0.00022559,0.00020153,0.00016000,-0.00008714,-0.00007015,-0.0001331
 0,-0.00014887,-0.00010761,0.00016134,0.00013530,0.00013961,0.00972387,
 -0.04368677,0.00401199,-0.01082658,0.00351360,-0.01053844,0.00289483,-
 0.00144546,0.00049885,0.00009615,-0.00035022,-0.00009304,-0.01859171,0
 .01023291,0.00089757,0.00203189,-0.00383452,-0.00425382,0.01787489,0.0
 5986428,0.00048478,0.00992614,0.01581859,0.00062996,-0.00196345,-0.000
 56410,-0.00080352,0.00011437,-0.00000257,0.00055674,-0.00046797,0.0002
 0051,0.00061617,0.00018682,-0.00062058,0.00016613,-0.00010672,-0.00000
 562,-0.00004906,0.00003114,-0.00002493,-0.00038523,0.00021647,0.000136
 74,0.00019823,-0.00006711,-0.00011607,-0.00059819,0.00098932,-0.000336
 64,0.00040001,-0.00024119,-0.00011959,-0.00046920,-0.00020931,-0.00047
 008,0.00002003,-0.00087315,0.00080918,-0.00012473,-0.00013682,-0.00007
 310,-0.00002120,0.00008416,-0.00001477,-0.00007481,-0.00011628,0.00002
 404,-0.00004486,0.00001282,-0.00004887,-0.02476518,0.01974570,-0.05860
 253,0.01145578,-0.00257769,0.01448732,-0.00414734,0.00274523,-0.001725
 17,0.00001355,0.00055583,0.00034750,0.00203916,-0.02478112,-0.03525372
 ,-0.00015813,0.00122497,0.00031474,-0.01140255,0.02617276,0.09110463,-
 0.02059667,-0.00395959,-0.00262585,-0.00388184,0.00852798,0.00186585,0
 .00391073,-0.00009519,-0.00196178,-0.00136692,-0.00006670,0.00159687,0
 .00240022,0.00146825,-0.00043514,-0.00054718,0.00027199,-0.00013184,0.
 00017502,-0.00011201,0.00012175,0.00095315,-0.00026872,-0.00015044,-0.
 00048153,0.00011154,0.00023405,-0.00535101,-0.00721444,-0.00692831,0.0
 0139105,-0.00080685,0.00380839,-0.00149963,-0.00053724,0.00048597,0.00
 299661,0.00200318,0.00012410,-0.00085672,-0.00058738,-0.00063692,0.000
 10710,0.00006614,0.00015510,0.00054822,0.00109295,-0.00055040,-0.00018
 062,-0.00045086,-0.00010236,-0.04539814,0.01699768,-0.05602134,0.00283
 231,0.00102816,-0.00182641,0.00387549,-0.00061828,0.00005200,-0.000282
 63,-0.00069799,-0.00078889,-0.01176769,0.01382891,0.01061120,0.0009542
 2,-0.00174914,-0.00153224,-0.00862315,-0.00529905,0.03006680,0.0971217
 9,0.00017935,-0.06018223,-0.02829052,0.00391399,-0.00854263,-0.0001874
 4,-0.00071669,-0.00097204,-0.00080079,0.00138530,-0.00183736,0.0017956
 1,0.00176909,0.00196151,-0.00366754,0.00035969,0.00010429,-0.00031615,
 0.00016174,-0.00010215,0.00028814,-0.00107506,0.00053163,0.00075222,0.
 00074349,-0.00016413,-0.00042366,-0.00588180,-0.00646948,-0.00460704,-
 0.00158624,-0.00044518,0.00256358,0.00056862,0.00014634,-0.00080965,-0
 .00164367,-0.00287436,-0.00063539,-0.00008584,-0.00051970,-0.00083218,
 -0.00042989,0.00010011,0.00036698,-0.00028612,-0.00030654,0.00012930,-
 0.00009054,0.00000858,-0.00008023,0.04411168,0.00310668,0.04744982,-0.
 00018942,-0.00188768,0.00304036,-0.00519940,0.00538913,0.00061833,0.00
 042729,0.00042592,0.00058883,0.01318565,-0.01441918,-0.01348099,-0.001
 56846,0.00127002,0.00326467,-0.02272257,-0.00695462,-0.03340185,-0.044
 86190,0.16210171,0.00128731,-0.03951012,-0.06846051,-0.00521433,0.0011
 5691,0.00411123,0.00578959,0.00068414,-0.00363318,0.00013036,-0.001018
 49,0.00473049,0.00205055,0.00054968,-0.00453978,-0.00107731,0.00014039
 ,-0.00081763,0.00048397,-0.00023727,0.00048240,-0.00008916,-0.00009913
 ,0.00042652,0.00011126,0.00002120,-0.00010463,-0.00044298,0.00009670,0
 .00260782,-0.00193025,-0.00005576,0.00059728,0.00395489,-0.00033621,-0
 .00204449,-0.00642162,-0.00574732,0.00005676,0.00075175,0.00066894,-0.
 00027941,-0.00046967,-0.00018210,0.00023512,-0.00131210,-0.00063972,0.
 00018661,0.00020036,0.00026893,0.00015466,-0.03807468,0.01499369,-0.01
 526321,-0.00184179,0.00077916,-0.00382524,-0.00451167,-0.00397851,-0.0
 0963359,0.00010915,-0.00034872,0.00010415,-0.00263617,0.00245563,-0.00
 411768,0.00014853,0.00009017,0.00010576,0.01403362,-0.00403800,-0.0219
 3203,0.05693665,-0.10714554,0.59207159,0.00085255,-0.00322302,-0.00138
 795,0.00099573,-0.00066734,-0.00117337,-0.00160107,-0.00017001,0.00060
 082,0.00060193,0.00044935,-0.00061209,-0.00000395,-0.00069735,0.000596
 96,0.00004956,-0.00011255,0.00005406,-0.00004047,0.00000234,-0.0000469
 7,-0.00031374,0.00022519,0.00013464,0.00018003,-0.00009202,-0.00012765
 ,0.00005872,-0.00034080,0.00001894,-0.00098601,-0.00047478,-0.00034622
 ,0.00043514,0.00086057,0.00052724,0.00005251,0.00081268,-0.00026983,0.
 00011457,0.00008631,0.00016540,0.00004097,0.00000574,-0.00004865,-0.00
 016552,-0.00025043,0.00001822,0.00015569,0.00020564,0.00012753,-0.0087
 9927,0.00279204,-0.00583882,-0.00048110,0.00046329,-0.00110371,0.00199
 419,0.00023584,0.00092987,0.00001702,0.00012209,0.00011070,-0.00205053
 ,0.00125450,0.00116743,0.00014390,-0.00016033,-0.00016722,0.01134145,-
 0.00650851,-0.00360332,-0.01643217,0.01953172,-0.02196627,0.01383983,-
 0.00063654,0.00492041,-0.01201082,-0.00186312,-0.00157525,0.00046881,0
 .00272148,0.00062793,-0.00093931,-0.00060179,-0.00023285,0.00155925,0.
 00053967,0.00016557,-0.00085666,-0.00035899,0.00005221,-0.00011401,0.0
 0004908,-0.00003789,0.00001931,0.00036114,-0.00025739,-0.00006669,-0.0
 0027471,0.00008044,0.00012417,-0.00095409,0.00037278,-0.00018283,-0.00
 008733,-0.00081785,0.00008506,0.00072402,-0.00011051,-0.00018208,-0.00
 138566,-0.00074008,0.00019897,0.00007877,0.00017983,0.00005649,0.00003
 089,-0.00003020,-0.00004233,-0.00042938,-0.00017615,-0.00007881,0.0001
 3144,0.00012058,0.00009977,0.00587633,-0.00193076,0.00150077,0.0002746
 2,0.00005560,0.00096164,0.00037042,0.00009907,0.00039398,-0.00003098,0
 .00004190,-0.00000798,-0.00087955,-0.00017743,-0.00072401,0.00005930,0
 .00018033,-0.00020552,-0.01129341,0.00164158,0.00293693,0.02192857,-0.
 06946863,0.14143135,-0.01435016,0.06701674,0.00036899,0.00088593,-0.01
 195595,-0.00003290,0.00017005,0.00031187,-0.00013463,0.00025296,-0.000
 21320,-0.00020316,0.00031108,-0.00032513,-0.00000419,-0.00021281,0.000
 48229,-0.00013899,-0.00001950,0.00015238,-0.00004264,0.00003091,-0.000
 11774,0.00019365,-0.00000951,-0.00013171,-0.00013403,0.00001839,0.0000
 6815,-0.00069486,-0.00001157,0.00139215,0.00036651,0.00038041,-0.00069
 047,0.00042614,-0.00026216,-0.00004800,-0.00062455,0.00016514,0.000386
 67,0.00004102,0.00017184,0.00023144,0.00008711,-0.00001348,-0.00011782
 ,-0.00007197,-0.00011804,0.00000475,0.00004372,0.00007491,0.00003827,0
 .00274740,-0.00138827,0.00253759,-0.00019888,0.00019242,-0.00006480,0.
 00042675,-0.00119215,-0.00065632,-0.00013424,-0.00020046,-0.00009471,0
 .00021068,0.00007952,-0.00065579,0.00002192,0.00006143,-0.00003815,-0.
 00239233,0.00123725,-0.00333289,-0.03236681,0.13382112,-0.47121900,0.0
 3224025,-0.13442543,0.48405611\\0.00000381,0.00000331,-0.00000207,0.00
 000053,0.00000696,0.00000123,-0.00000142,0.00000212,-0.00000255,-0.000
 00605,0.00000602,-0.00000617,-0.00000299,-0.00000137,-0.00000173,0.000
 00517,0.00000804,0.00000004,0.00000511,0.00000409,0.00000036,-0.000001
 35,0.00000220,0.00000061,0.00000222,0.00000097,-0.00000562,0.00000146,
 0.00000334,-0.00000112,0.00000201,-0.00000707,0.00000069,0.00000636,-0
 .00000250,0.00000456,-0.00000465,-0.00000087,0.00000155,0.00001152,0.0
 0000183,0.00000254,-0.00001079,-0.00000539,0.00001249,-0.00000117,-0.0
 0000666,0.00000656,0.00000189,-0.00000456,0.00000858,-0.00000201,0.000
 00170,-0.00000094,-0.00000568,-0.00000032,-0.00000233,0.00000203,-0.00
 000733,0.00000163,-0.00000483,-0.00000120,-0.00000553,-0.00000061,-0.0
 0000291,-0.00000456,-0.00000444,-0.00000619,0.00000251,0.00000340,0.00
 000130,-0.00000406,0.00000020,-0.00000087,-0.00000444,0.00000026,0.000
 00536,-0.00000221\\\@


 YOU WILL NEVER "FIND" TIME FOR ANYTHING.
 IF YOU WANT TIME, YOU MUST MAKE IT.

                        -- CHARLES BIXTON
 Job cpu time:  0 days  0 hours  0 minutes  0.0 seconds.
 File lengths (MBytes):  RWF=    666 Int=      0 D2E=      0 Chk=     15 Scr=      1
 Normal termination of Gaussian 03 at Sat Mar 20 19:32:08 2010.
