 Entering Gaussian System, Link 0=g09
 Input=gaussian.gjf
 Output=gaussian.log
 Initial command:
 /opt/g09_D01_em64t/g09/l1.exe "/tmp/Gau-7704.inp" -scrdir="/tmp/"
 Entering Link 1 = /opt/g09_D01_em64t/g09/l1.exe PID=      7705.
  
 Copyright (c) 1988,1990,1992,1993,1995,1998,2003,2009,2013,
            Gaussian, Inc.  All Rights Reserved.
  
 This is part of the Gaussian(R) 09 program.  It is based on
 the Gaussian(R) 03 system (copyright 2003, Gaussian, Inc.),
 the Gaussian(R) 98 system (copyright 1998, Gaussian, Inc.),
 the Gaussian(R) 94 system (copyright 1995, Gaussian, Inc.),
 the Gaussian 92(TM) system (copyright 1992, Gaussian, Inc.),
 the Gaussian 90(TM) system (copyright 1990, Gaussian, Inc.),
 the Gaussian 88(TM) system (copyright 1988, Gaussian, Inc.),
 the Gaussian 86(TM) system (copyright 1986, Carnegie Mellon
 University), and the Gaussian 82(TM) system (copyright 1983,
 Carnegie Mellon University). Gaussian is a federally registered
 trademark of Gaussian, Inc.
  
 This software contains proprietary and confidential information,
 including trade secrets, belonging to Gaussian, Inc.
  
 This software is provided under written license and may be
 used, copied, transmitted, or stored only in accord with that
 written license.
  
 The following legend is applicable only to US Government
 contracts under FAR:
  
                    RESTRICTED RIGHTS LEGEND
  
 Use, reproduction and disclosure by the US Government is
 subject to restrictions as set forth in subparagraphs (a)
 and (c) of the Commercial Computer Software - Restricted
 Rights clause in FAR 52.227-19.
  
 Gaussian, Inc.
 340 Quinnipiac St., Bldg. 40, Wallingford CT 06492
  
  
 ---------------------------------------------------------------
 Warning -- This program may not be used in any manner that
 competes with the business of Gaussian, Inc. or will provide
 assistance to any competitor of Gaussian, Inc.  The licensee
 of this program is prohibited from giving any competitor of
 Gaussian, Inc. access to this program.  By using this program,
 the user acknowledges that Gaussian, Inc. is engaged in the
 business of creating and licensing software in the field of
 computational chemistry and represents and warrants to the
 licensee that it is not a competitor of Gaussian, Inc. and that
 it will not use this program in any manner prohibited above.
 ---------------------------------------------------------------
  

 Cite this work as:
 Gaussian 09, Revision D.01,
 M. J. Frisch, G. W. Trucks, H. B. Schlegel, G. E. Scuseria, 
 M. A. Robb, J. R. Cheeseman, G. Scalmani, V. Barone, B. Mennucci, 
 G. A. Petersson, H. Nakatsuji, M. Caricato, X. Li, H. P. Hratchian, 
 A. F. Izmaylov, J. Bloino, G. Zheng, J. L. Sonnenberg, M. Hada, 
 M. Ehara, K. Toyota, R. Fukuda, J. Hasegawa, M. Ishida, T. Nakajima, 
 Y. Honda, O. Kitao, H. Nakai, T. Vreven, J. A. Montgomery, Jr., 
 J. E. Peralta, F. Ogliaro, M. Bearpark, J. J. Heyd, E. Brothers, 
 K. N. Kudin, V. N. Staroverov, T. Keith, R. Kobayashi, J. Normand, 
 K. Raghavachari, A. Rendell, J. C. Burant, S. S. Iyengar, J. Tomasi, 
 M. Cossi, N. Rega, J. M. Millam, M. Klene, J. E. Knox, J. B. Cross, 
 V. Bakken, C. Adamo, J. Jaramillo, R. Gomperts, R. E. Stratmann, 
 O. Yazyev, A. J. Austin, R. Cammi, C. Pomelli, J. W. Ochterski, 
 R. L. Martin, K. Morokuma, V. G. Zakrzewski, G. A. Voth, 
 P. Salvador, J. J. Dannenberg, S. Dapprich, A. D. Daniels, 
 O. Farkas, J. B. Foresman, J. V. Ortiz, J. Cioslowski, 
 and D. J. Fox, Gaussian, Inc., Wallingford CT, 2013.
 
 ******************************************
 Gaussian 09:  EM64L-G09RevD.01 24-Apr-2013
                30-Apr-2014 
 ******************************************
 %chk=gaussian.chk
 %mem=1GB
 %nproc=2
 Will use up to    2 processors via shared memory.
 %nproclinda=1
 Will use up to    1 processors via Linda.
 ----------------------------------------------------------------------
 # b3lyp/6-31g* scf=(tight,maxcycle=10000) iop(9/40=20) nosymm pop=full
 ----------------------------------------------------------------------
 1/38=1/1;
 2/12=2,15=1,17=6,18=5,40=1/2;
 3/5=1,6=6,7=1,11=2,16=1,25=1,30=1,74=-5/1,2,3;
 4//1;
 5/5=2,7=10000,32=2,38=5/2;
 6/7=3,28=1/1;
 99/5=1,9=1/99;
 -------
 [0] [0]
 -------
 Symbolic Z-matrix:
 Charge =  1 Multiplicity = 1
 c                    -2.39272   0.38132   0.10936 
 n                    -1.24434   0.20835   0.15927 
 h                    -2.84088   0.16171   1.11731 
 h                    -2.40814  -0.1013   -0.81893 
 h                    -0.36694   0.35961  -0.70315 
 h                    -1.04493   0.94474   0.89164 
 
                          Input orientation:                          
 ---------------------------------------------------------------------
 Center     Atomic      Atomic             Coordinates (Angstroms)
 Number     Number       Type             X           Y           Z
 ---------------------------------------------------------------------
      1          6           0       -2.392718    0.381324    0.109356
      2          7           0       -1.244336    0.208351    0.159273
      3          1           0       -2.840885    0.161705    1.117309
      4          1           0       -2.408136   -0.101302   -0.818935
      5          1           0       -0.366943    0.359609   -0.703147
      6          1           0       -1.044931    0.944740    0.891635
 ---------------------------------------------------------------------
                    Distance matrix (angstroms):
                    1          2          3          4          5
     1  C    0.000000
     2  N    1.162408   0.000000
     3  H    1.124746   1.862519   0.000000
     4  H    1.046370   1.551517   2.001371   0.000000
     5  H    2.182750   1.239543   3.077924   2.095785   0.000000
     6  H    1.657085   1.057537   1.972188   2.424578   1.829036
                    6
     6  H    0.000000
 Symmetry turned off by external request.
 Stoichiometry    CH4N(1+)
 Framework group  C1[X(CH4N)]
 Deg. of freedom    12
 Full point group                 C1      NOp   1
 Rotational constants (GHZ):    128.6991694     37.9846051     31.6862257
 Standard basis: 6-31G(d) (6D, 7F)
    38 basis functions,    72 primitive gaussians,    38 cartesian basis functions
     8 alpha electrons        8 beta electrons
       nuclear repulsion energy        40.6802690594 Hartrees.
 NAtoms=    6 NActive=    6 NUniq=    6 SFac= 1.00D+00 NAtFMM=   60 NAOKFM=F Big=F
 Integral buffers will be    131072 words long.
 Raffenetti 2 integral format.
 Two-electron integral symmetry is turned off.
 One-electron integrals computed using PRISM.
 NBasis=    38 RedAO= T EigKep=  4.69D-03  NBF=    38
 NBsUse=    38 1.00D-06 EigRej= -1.00D+00 NBFU=    38
 ExpMin= 1.61D-01 ExpMax= 4.17D+03 ExpMxC= 6.27D+02 IAcc=1 IRadAn=         1 AccDes= 0.00D+00
 Harris functional with IExCor=  402 and IRadAn=       1 diagonalized for initial guess.
 HarFok:  IExCor=  402 AccDes= 0.00D+00 IRadAn=         1 IDoV= 1 UseB2=F ITyADJ=14
 ICtDFT=  3500011 ScaDFX=  1.000000  1.000000  1.000000  1.000000
 FoFCou: FMM=F IPFlag=           0 FMFlag=      100000 FMFlg1=           0
         NFxFlg=           0 DoJE=T BraDBF=F KetDBF=T FulRan=T
         wScrn=  0.000000 ICntrl=     500 IOpCl=  0 I1Cent=   200000004 NGrid=           0
         NMat0=    1 NMatS0=      1 NMatT0=    0 NMatD0=    1 NMtDS0=    0 NMtDT0=    0
 Symmetry not used in FoFCou.
 Keep R1 ints in memory in canonical form, NReq=101191747.
 Requested convergence on RMS density matrix=1.00D-08 within**** cycles.
 Requested convergence on MAX density matrix=1.00D-06.
 Requested convergence on             energy=1.00D-06.
 No special actions if energy rises.
 Integral accuracy reduced to 1.0D-05 until final iterations.
 Initial convergence to 1.0D-05 achieved.  Increase integral accuracy.
 SCF Done:  E(RB3LYP) =  -94.8009033696     A.U. after   12 cycles
            NFock= 12  Conv=0.30D-08     -V/T= 2.0043

 **********************************************************************

            Population analysis using the SCF density.

 **********************************************************************

 Alpha  occ. eigenvalues --  -14.69817 -10.53426  -1.31591  -0.92840  -0.86939
 Alpha  occ. eigenvalues --   -0.75044  -0.71116  -0.61022
 Alpha virt. eigenvalues --   -0.33961  -0.23491  -0.18219  -0.11083  -0.06019
 Alpha virt. eigenvalues --    0.05717   0.25390   0.30110   0.32090   0.41041
 Alpha virt. eigenvalues --    0.43266   0.53398   0.55901   0.57688   0.61166
 Alpha virt. eigenvalues --    0.66938   0.76173   0.99682   1.17973   1.31248
 Alpha virt. eigenvalues --    1.36658   1.67886   1.82056   2.01021   2.09157
 Alpha virt. eigenvalues --    2.22816   2.27070   2.57554   3.45052   3.80772
     Molecular Orbital Coefficients:
                           1         2         3         4         5
                           O         O         O         O         O
     Eigenvalues --   -14.69817 -10.53426  -1.31591  -0.92840  -0.86939
   1 1   C  1S          0.00013   0.99250  -0.13568   0.12797  -0.04661
   2        2S          0.00025   0.05042   0.25397  -0.26544   0.09040
   3        2PX        -0.00015   0.00199   0.19319   0.01066  -0.02427
   4        2PY         0.00000  -0.00020  -0.03192   0.11845   0.06145
   5        2PZ         0.00001   0.00009   0.00244   0.08858   0.31558
   6        3S         -0.00100  -0.00993   0.08613  -0.23938   0.13864
   7        3PX        -0.00055  -0.00081  -0.01227  -0.00016   0.00946
   8        3PY         0.00013   0.00085   0.00039   0.02534   0.01860
   9        3PZ         0.00002  -0.00029   0.01869   0.02416   0.09705
  10        4XX        -0.00054  -0.00913   0.01633   0.01524  -0.00245
  11        4YY         0.00004  -0.01035  -0.01663   0.00436  -0.00758
  12        4ZZ         0.00006  -0.01003  -0.00791  -0.01154   0.00476
  13        4XY         0.00007  -0.00012  -0.00486   0.01003   0.00799
  14        4XZ        -0.00002  -0.00001  -0.00049   0.01103   0.01694
  15        4YZ         0.00000   0.00014   0.00359  -0.00730  -0.01106
  16 2   N  1S          0.99260  -0.00067  -0.18496  -0.08360   0.04181
  17        2S          0.03508  -0.00021   0.37370   0.18113  -0.08143
  18        2PX        -0.00084   0.00039  -0.15110   0.31263  -0.13236
  19        2PY         0.00052  -0.00005   0.06093   0.14771   0.10615
  20        2PZ        -0.00014   0.00007   0.00255   0.11223   0.34299
  21        3S          0.00493   0.00116   0.34309   0.30027  -0.19253
  22        3PX        -0.00027   0.00038  -0.02781   0.12357  -0.05547
  23        3PY        -0.00002  -0.00054   0.02994   0.08538   0.04470
  24        3PZ        -0.00006  -0.00021  -0.01108   0.04347   0.18975
  25        4XX        -0.00794  -0.00039   0.00790  -0.01858   0.00057
  26        4YY        -0.00852  -0.00015  -0.00836   0.01135   0.01223
  27        4ZZ        -0.00850  -0.00026  -0.00541   0.00897  -0.00499
  28        4XY        -0.00011   0.00011  -0.00312   0.00616  -0.00932
  29        4XZ         0.00004  -0.00011  -0.00207  -0.01191  -0.00711
  30        4YZ         0.00000  -0.00015   0.00831   0.01213   0.01363
  31 3   H  1S         -0.00006  -0.00020   0.03772  -0.07508   0.15119
  32        2S         -0.00004   0.00202  -0.01285  -0.01543   0.04498
  33 4   H  1S         -0.00003  -0.00039   0.06467  -0.15681  -0.11768
  34        2S         -0.00007   0.00211   0.00327  -0.02937  -0.03958
  35 5   H  1S          0.00021   0.00000   0.04205   0.10915  -0.15153
  36        2S         -0.00043  -0.00018  -0.00916   0.02935  -0.04851
  37 6   H  1S          0.00031   0.00028   0.09443   0.17693   0.11469
  38        2S         -0.00043   0.00075  -0.01502   0.03976   0.02938
                           6         7         8         9        10
                           O         O         O         V         V
     Eigenvalues --    -0.75044  -0.71116  -0.61022  -0.33961  -0.23491
   1 1   C  1S          0.04989  -0.06472   0.01180  -0.04705  -0.02426
   2        2S         -0.09849   0.13318  -0.02404   0.09035   0.04649
   3        2PX         0.40992  -0.12331  -0.12008  -0.07651   0.06888
   4        2PY         0.07359   0.26849  -0.16560   0.48263   0.07704
   5        2PZ        -0.10334  -0.17831  -0.30965  -0.07295   0.05322
   6        3S         -0.21660   0.19977  -0.01851   0.34884   0.10993
   7        3PX         0.08982  -0.02957  -0.03597  -0.05190   0.09753
   8        3PY         0.03644   0.11142  -0.09314   0.48149   0.17497
   9        3PZ        -0.05175  -0.06299  -0.16695  -0.06239   0.07193
  10        4XX         0.02696  -0.00981  -0.01255  -0.00091  -0.01763
  11        4YY        -0.00704  -0.00765   0.01080   0.00249   0.00352
  12        4ZZ        -0.03105   0.01015   0.01074  -0.00943   0.00407
  13        4XY        -0.00207   0.03216  -0.00355  -0.00935  -0.00542
  14        4XZ         0.01203  -0.00877   0.02165   0.00461   0.02913
  15        4YZ         0.00151   0.01070   0.01625  -0.00305   0.00129
  16 2   N  1S         -0.00520   0.06364   0.00130  -0.04400   0.08696
  17        2S          0.01289  -0.15082   0.00276   0.09963  -0.17512
  18        2PX        -0.35279   0.06147   0.12082   0.08773  -0.21062
  19        2PY         0.13645   0.43467  -0.05231  -0.33674  -0.12621
  20        2PZ         0.02010  -0.09807   0.36836   0.07757   0.29245
  21        3S         -0.02679  -0.20679  -0.00924   0.31160  -0.86255
  22        3PX        -0.16060   0.02444   0.05645   0.07595  -0.27809
  23        3PY         0.06257   0.26423  -0.04014  -0.36766  -0.20436
  24        3PZ         0.01776  -0.06341   0.26263   0.08275   0.37763
  25        4XX        -0.00175  -0.00672  -0.01094  -0.00681   0.02783
  26        4YY         0.00318   0.02014   0.00842  -0.00433  -0.00068
  27        4ZZ        -0.01285  -0.00035   0.00737  -0.00582   0.01315
  28        4XY        -0.01719  -0.01814   0.01639  -0.02149  -0.00844
  29        4XZ         0.01400   0.00987   0.02223   0.00226  -0.02091
  30        4YZ        -0.00023  -0.00111   0.02327  -0.00468   0.00261
  31 3   H  1S         -0.21888  -0.00705  -0.14854  -0.10812  -0.10643
  32        2S         -0.12373  -0.00358  -0.10408  -0.15673  -0.27727
  33 4   H  1S         -0.06706   0.09599   0.23185  -0.08740   0.04082
  34        2S         -0.05481   0.06088   0.17400  -0.10169   0.26776
  35 5   H  1S         -0.13774   0.01555  -0.15969  -0.09995   0.27305
  36        2S         -0.08742   0.00622  -0.13782  -0.19990   1.10078
  37 6   H  1S          0.00299   0.09344   0.19256  -0.10602   0.00222
  38        2S         -0.01516   0.05690   0.16807  -0.15992   0.13364
                          11        12        13        14        15
                           V         V         V         V         V
     Eigenvalues --    -0.18219  -0.11083  -0.06019   0.05717   0.25390
   1 1   C  1S          0.07231  -0.08087  -0.00328  -0.08177   0.01060
   2        2S         -0.17061   0.15531  -0.01187   0.05919  -0.20641
   3        2PX         0.10753  -0.18550  -0.08938   0.03050  -0.33788
   4        2PY         0.10724  -0.19444   0.02863   0.04310  -0.72479
   5        2PZ        -0.05294  -0.02019   0.45667  -0.02552   0.00108
   6        3S         -0.76901   1.28081  -0.07718   3.71611  -0.91465
   7        3PX         0.31397  -0.37593  -0.20113   2.49708   0.03154
   8        3PY         0.35010  -0.37090   0.18558  -0.56364   1.08506
   9        3PZ         0.03903   0.00304   1.57218  -0.04447   0.02626
  10        4XX        -0.00984  -0.00161  -0.00855  -0.03205  -0.05181
  11        4YY         0.00680   0.01446   0.00748   0.00485  -0.01259
  12        4ZZ         0.01507  -0.02803   0.00226   0.04007   0.03721
  13        4XY        -0.00643  -0.01218   0.00589   0.01125  -0.03307
  14        4XZ        -0.01577  -0.00620   0.01329  -0.01101   0.00336
  15        4YZ         0.01251   0.00453   0.01795   0.00140   0.00573
  16 2   N  1S          0.04694   0.02871  -0.00320   0.07358  -0.03026
  17        2S         -0.10189  -0.02865  -0.00520  -0.07927   0.04589
  18        2PX        -0.03930  -0.11627   0.08650   0.25463   0.16949
  19        2PY        -0.22336  -0.14009   0.02098   0.03593  -0.20218
  20        2PZ        -0.23412  -0.21553  -0.10668   0.01288   0.20313
  21        3S         -0.65903  -0.48961   0.15175  -2.98947   0.77145
  22        3PX        -0.14810  -0.07316   0.06867   1.59721  -0.90290
  23        3PY        -0.48259  -0.18583   0.01655  -0.13021   0.14857
  24        3PZ        -0.40978  -0.42651  -0.48220   0.08365  -0.15991
  25        4XX        -0.00941   0.01881  -0.00836   0.00448   0.00986
  26        4YY         0.00514   0.01248   0.00714   0.02853  -0.00778
  27        4ZZ         0.02103  -0.00578  -0.00076   0.01686   0.03461
  28        4XY        -0.00048   0.01850  -0.00082  -0.00159   0.06201
  29        4XZ         0.02048   0.00623  -0.01540   0.00003  -0.00128
  30        4YZ         0.00545   0.00081   0.02355  -0.01888   0.02069
  31 3   H  1S          0.08454  -0.13005  -0.06873   0.09721   0.11822
  32        2S          0.65762  -0.95145  -1.58714  -0.25663   0.17231
  33 4   H  1S          0.05509  -0.14300   0.07727   0.12589   0.16107
  34        2S          0.47529  -1.20266   1.67628  -0.83670   0.00360
  35 5   H  1S         -0.08405   0.01986  -0.04438  -0.01151   0.01009
  36        2S         -0.15781  -0.04117  -0.42335  -0.31659   0.18760
  37 6   H  1S          0.16127   0.13050   0.06043  -0.07440   0.16259
  38        2S          1.15614   1.07013   0.03162  -0.35645  -0.46148
                          16        17        18        19        20
                           V         V         V         V         V
     Eigenvalues --     0.30110   0.32090   0.41041   0.43266   0.53398
   1 1   C  1S          0.00973   0.01405  -0.01670  -0.05308  -0.05771
   2        2S          0.19940   0.35688   0.03537  -0.69235  -0.44631
   3        2PX         0.62056   0.25532   0.03700  -0.02249   0.34603
   4        2PY        -0.50128   0.01342   0.36852  -0.21646   0.02731
   5        2PZ         0.31351  -0.62961   0.19786   0.04690  -0.25703
   6        3S          1.02242  -0.84318  -0.42813   2.09911   0.77304
   7        3PX         0.12606  -0.73289  -0.11659   0.70448  -0.52186
   8        3PY         0.44519   0.42339  -0.73402  -0.00804  -0.35808
   9        3PZ        -0.45013   2.14529  -0.59014  -0.08374   0.95778
  10        4XX        -0.03575  -0.02007  -0.07209  -0.04766  -0.15950
  11        4YY         0.00003   0.01017   0.02431   0.05780   0.08551
  12        4ZZ         0.03493   0.05592   0.03375  -0.17643  -0.06879
  13        4XY        -0.00426  -0.00136  -0.03400   0.02593   0.04170
  14        4XZ        -0.00595   0.02896   0.04340   0.09876   0.01531
  15        4YZ        -0.00614   0.10780  -0.01136  -0.01692   0.03072
  16 2   N  1S          0.03999   0.02212   0.00284   0.01917  -0.00252
  17        2S          0.06008  -0.00774  -0.03993  -0.21642   0.33462
  18        2PX        -0.03437  -0.01463   0.04755   0.02445   0.59755
  19        2PY        -0.02707   0.09191  -0.69696   0.32848  -0.17278
  20        2PZ        -0.05016   0.17942   0.25101   0.11387  -0.03068
  21        3S         -0.94483   0.57914   0.40509  -0.65824  -0.76587
  22        3PX         1.31698   0.10440  -0.19514   0.39167  -0.75414
  23        3PY        -0.04724  -0.22832   1.00894  -0.39415   0.45536
  24        3PZ         0.22347  -0.68456  -0.26298  -0.26808   0.02090
  25        4XX         0.14428   0.08247   0.06713  -0.04398   0.16473
  26        4YY        -0.03811  -0.04992  -0.03460  -0.00163   0.09521
  27        4ZZ        -0.03205   0.02616   0.02925  -0.01887  -0.03130
  28        4XY         0.01559  -0.01172  -0.00296   0.02862  -0.02552
  29        4XZ        -0.02169   0.01945  -0.09286  -0.12176   0.04878
  30        4YZ        -0.04812   0.05215  -0.02315  -0.04766  -0.06226
  31 3   H  1S          0.08244  -0.08494  -0.02746  -0.68582  -0.31155
  32        2S          0.06310  -0.84817   0.40602   0.39864  -0.70950
  33 4   H  1S          0.08946   0.48209   0.06180  -0.30054  -0.01403
  34        2S          0.05156   0.84741  -0.36049  -0.29075   0.09924
  35 5   H  1S          0.07610   0.39887   0.56446   0.50822  -0.48082
  36        2S         -0.52927  -0.51515  -0.75966  -0.79996   0.97511
  37 6   H  1S         -0.39394   0.11556  -0.08123  -0.07922  -0.42223
  38        2S          0.31668  -0.03004   0.21662   0.02238   0.30326
                          21        22        23        24        25
                           V         V         V         V         V
     Eigenvalues --     0.55901   0.57688   0.61166   0.66938   0.76173
   1 1   C  1S         -0.02956  -0.00031   0.01256  -0.02841   0.05384
   2        2S         -0.78010  -0.52387   0.16371   0.79198  -0.93680
   3        2PX         0.43610   0.39788  -0.26590   0.05979  -0.27295
   4        2PY        -0.06818   0.15154  -0.18626  -0.09448   0.12878
   5        2PZ        -0.32944   0.17021  -0.59471   0.33373   0.18485
   6        3S          3.04792   1.94982   1.04669  -0.15147   2.23554
   7        3PX         0.43683  -0.25694   1.02832   0.69905   0.42217
   8        3PY        -0.24309  -0.46184  -0.03756   0.01901  -0.38152
   9        3PZ         0.73307  -0.16740   1.53072  -0.08073   0.37228
  10        4XX        -0.07501  -0.04355   0.15877   0.03363   0.11553
  11        4YY         0.01868  -0.00793   0.01601   0.14194  -0.08451
  12        4ZZ        -0.07511  -0.02381  -0.13987  -0.10241  -0.06695
  13        4XY        -0.01780   0.04489  -0.02524  -0.02397  -0.05848
  14        4XZ        -0.05308  -0.01364  -0.00946   0.05068   0.02013
  15        4YZ        -0.03754  -0.01649  -0.09618   0.12029   0.18360
  16 2   N  1S          0.03660   0.01033  -0.01297   0.03886  -0.05593
  17        2S         -0.36478  -0.14051   0.26352  -0.06936  -0.06708
  18        2PX        -0.13056   0.00194  -0.40049  -0.04509  -0.55484
  19        2PY        -0.38735   0.14972  -0.17409  -0.21973  -0.14931
  20        2PZ        -0.33730   0.76675   0.37815   0.06525  -0.08138
  21        3S         -0.48345  -0.35868  -1.41724  -0.66270   0.04983
  22        3PX         1.07216   0.40182   1.51163   1.08865   0.99077
  23        3PY         0.53390  -0.48804   0.45450   0.18651   0.59461
  24        3PZ         0.50981  -1.54564  -0.60365  -0.43741   0.08316
  25        4XX        -0.06049  -0.03526  -0.05514   0.05442  -0.23456
  26        4YY         0.00691   0.05601   0.08537   0.05140   0.06085
  27        4ZZ        -0.05997  -0.09806  -0.03043  -0.10380  -0.02330
  28        4XY         0.02472  -0.03216   0.04234   0.00987   0.04132
  29        4XZ         0.05448   0.06091   0.05788   0.06525   0.01796
  30        4YZ         0.07472   0.05943  -0.09695   0.16557  -0.06376
  31 3   H  1S          0.19285   0.32042   0.05447  -0.78121  -0.23811
  32        2S         -1.03583  -0.58032  -0.57150   1.33179  -0.33075
  33 4   H  1S         -0.27903   0.07137  -0.61839   0.01785   0.77099
  34        2S          0.19663  -1.24917   1.61886   0.11335  -0.84048
  35 5   H  1S          0.02236  -0.29314  -0.16657  -0.46912  -0.29296
  36        2S         -0.06290  -0.34800  -0.54273   0.00150  -0.07177
  37 6   H  1S          0.65318   0.16462  -0.35257   0.48447  -0.36815
  38        2S         -1.57081   0.74211  -0.07265  -0.69545  -0.55850
                          26        27        28        29        30
                           V         V         V         V         V
     Eigenvalues --     0.99682   1.17973   1.31248   1.36658   1.67886
   1 1   C  1S         -0.01690  -0.00097  -0.02496  -0.02755  -0.00275
   2        2S          0.51774  -0.03924  -0.21819  -0.23764  -0.02769
   3        2PX        -0.01833   0.02921   0.01089   0.09253  -0.07376
   4        2PY        -0.10456   0.27021  -0.07212   0.02580  -0.01788
   5        2PZ        -0.07524   0.11373   0.22669  -0.13385  -0.12168
   6        3S         -5.13370   0.20649   1.54355   1.53370  -1.13810
   7        3PX        -2.36903   0.06619   0.59187   0.25354  -0.33580
   8        3PY         0.53724  -0.11509  -0.18599  -0.33683  -0.02669
   9        3PZ         0.48881  -0.08003  -0.14298   0.57915  -0.88857
  10        4XX        -0.11370  -0.11129   0.12435  -0.02498  -0.09078
  11        4YY         0.04641   0.16273  -0.03467  -0.38312   0.22098
  12        4ZZ         0.12415  -0.06351  -0.12675   0.39669  -0.08636
  13        4XY         0.04559  -0.51604   0.15509  -0.20946   0.01599
  14        4XZ        -0.12567  -0.21921  -0.46163   0.28072   0.22452
  15        4YZ        -0.02886  -0.02190   0.14315  -0.16315   0.73796
  16 2   N  1S         -0.08805   0.00467   0.02304  -0.00489  -0.03409
  17        2S         -1.71380   0.09866   0.30071  -0.18515  -0.41766
  18        2PX         0.14199   0.03343   0.03824  -0.03401   0.03782
  19        2PY        -0.08746   0.21181  -0.04699  -0.00272   0.03765
  20        2PZ         0.07217   0.06715   0.13085   0.04288  -0.00840
  21        3S          6.62925  -0.32827  -1.52190  -0.31381   1.59285
  22        3PX        -1.93593  -0.00624   0.37907   0.73671  -0.64895
  23        3PY         0.69674  -0.08179  -0.09319   0.19455   0.30790
  24        3PZ        -0.06392   0.02045   0.07615  -0.53042   0.50374
  25        4XX        -0.24054   0.13982  -0.03573   0.01102  -0.06168
  26        4YY        -0.23089  -0.09972  -0.39736  -0.62322  -0.12065
  27        4ZZ        -0.22374  -0.00107   0.54614   0.54031   0.10063
  28        4XY        -0.00220   0.55885  -0.23558   0.01449   0.11707
  29        4XZ         0.10620   0.20493   0.41397  -0.16923   0.09402
  30        4YZ        -0.24266  -0.08356  -0.04719   0.12463   0.55163
  31 3   H  1S         -0.07722  -0.02447  -0.29883  -0.25821   0.52821
  32        2S          0.01196   0.00443   0.03405  -0.37466   0.19792
  33 4   H  1S         -0.01590   0.04441  -0.08668  -0.19527  -0.59467
  34        2S          0.80214  -0.08288  -0.25541  -0.10015  -0.08682
  35 5   H  1S         -0.21339   0.06708   0.24656  -0.53258   0.09173
  36        2S         -0.14172   0.01460  -0.04495  -0.09787  -0.00917
  37 6   H  1S         -0.37122  -0.02683   0.05064  -0.03011  -0.67208
  38        2S         -0.28266   0.09580   0.00663  -0.15386   0.10979
                          31        32        33        34        35
                           V         V         V         V         V
     Eigenvalues --     1.82056   2.01021   2.09157   2.22816   2.27070
   1 1   C  1S         -0.07943   0.02375  -0.07693   0.00018  -0.00658
   2        2S         -0.28168  -0.17839  -0.42157   0.02054  -0.18330
   3        2PX         0.00523  -0.20336  -0.30679   0.02503  -0.17188
   4        2PY        -0.04014   0.02406   0.07379   0.29338  -0.07736
   5        2PZ         0.02413   0.00413  -0.06979   0.13983   0.26125
   6        3S          1.59895  -1.28491  -1.29380  -0.20017  -0.48195
   7        3PX         0.61734  -0.64536  -0.43393  -0.03727  -0.26593
   8        3PY        -0.27978   0.17115   0.10836   0.36864  -0.02967
   9        3PZ        -0.13596   0.42386  -0.17454   0.22715   0.39465
  10        4XX         0.25028  -0.12749   0.64365   0.29261  -0.11684
  11        4YY        -0.96003   0.06011  -0.15449  -0.21068   0.14025
  12        4ZZ         0.53448   0.19875  -0.76381  -0.12276  -0.03902
  13        4XY        -0.11639   0.18130  -0.19462   0.92285  -0.37309
  14        4XZ        -0.11322  -0.26567  -0.10202   0.43354   0.89037
  15        4YZ         0.27936  -0.64594  -0.11702  -0.08946  -0.25989
  16 2   N  1S         -0.00142  -0.02972  -0.08462  -0.00070  -0.01570
  17        2S         -0.04751  -0.17441  -0.85075   0.00489  -0.08009
  18        2PX         0.22820  -0.14886   0.36197   0.00938   0.01412
  19        2PY        -0.04397  -0.00814  -0.05510  -0.15156   0.07032
  20        2PZ         0.04253  -0.03267  -0.01653  -0.07117  -0.16198
  21        3S         -0.94589   1.58779   2.46522   0.03892   0.63410
  22        3PX         0.10169  -0.51931  -1.33664  -0.18079  -0.37986
  23        3PY         0.00266   0.41670   0.31382  -0.51667   0.17952
  24        3PZ         0.09960   0.37088   0.28210  -0.29731  -0.33622
  25        4XX         0.12726  -0.02801   0.54116   0.28332  -0.00298
  26        4YY         0.27843   0.13617  -0.52960  -0.31627   0.03443
  27        4ZZ        -0.49621  -0.09264  -0.41497   0.00270  -0.08040
  28        4XY         0.04766   0.10514  -0.21071   0.87775  -0.44640
  29        4XZ         0.21932   0.21416  -0.18224   0.37316   0.99174
  30        4YZ         0.04866   0.86077   0.19900  -0.15744  -0.11118
  31 3   H  1S         -0.38375  -0.33702   0.31483   0.06828   0.13487
  32        2S          0.01516  -0.06853  -0.09126  -0.06155  -0.20688
  33 4   H  1S         -0.49190   0.35119   0.38287   0.20883   0.17762
  34        2S         -0.17236   0.31643  -0.21258  -0.00963   0.07490
  35 5   H  1S          0.26599   0.17255  -0.07695  -0.00181   0.28955
  36        2S         -0.07820   0.00537   0.17962   0.01127  -0.15078
  37 6   H  1S         -0.00891  -0.80611  -0.13581   0.19841  -0.03041
  38        2S         -0.08538   0.00491  -0.18247   0.06630   0.06733
                          36        37        38
                           V         V         V
     Eigenvalues --     2.57554   3.45052   3.80772
   1 1   C  1S         -0.04857  -0.01541  -0.47459
   2        2S         -1.04175   0.65434   2.90902
   3        2PX        -1.29928   0.43594  -0.29997
   4        2PY         0.20039  -0.09893   0.09229
   5        2PZ        -0.08425  -0.01025  -0.00509
   6        3S         -1.99075  -1.74864   2.01377
   7        3PX        -1.04035  -0.89148   0.17461
   8        3PY         0.13650   0.16984  -0.20054
   9        3PZ        -0.18126   0.10681   0.07286
  10        4XX        -1.15213   0.07595  -2.10081
  11        4YY         0.39103  -0.17298  -1.77415
  12        4ZZ         0.55357  -0.22624  -1.80226
  13        4XY         0.30285  -0.06998   0.04958
  14        4XZ        -0.14735   0.03530  -0.00291
  15        4YZ         0.12398  -0.00858  -0.03469
  16 2   N  1S         -0.05516  -0.50381   0.07072
  17        2S          0.35481   0.84818   0.16322
  18        2PX        -0.88839   0.28406  -0.38900
  19        2PY         0.15348  -0.10302   0.05943
  20        2PZ        -0.02916   0.00648  -0.02861
  21        3S          2.54531   4.49871  -0.82271
  22        3PX        -1.58116  -0.54542   0.09356
  23        3PY         0.08991   0.37410   0.03524
  24        3PZ        -0.05907  -0.01304   0.03066
  25        4XX         1.28024  -1.79916   0.35560
  26        4YY        -0.61465  -1.54311   0.15945
  27        4ZZ        -0.65869  -1.50731   0.18433
  28        4XY        -0.31052   0.04115  -0.04470
  29        4XZ         0.02082  -0.01839   0.03750
  30        4YZ        -0.10417   0.04675   0.03939
  31 3   H  1S         -0.06117   0.04043   0.12791
  32        2S          0.07810  -0.04456  -0.47409
  33 4   H  1S         -0.21215   0.02636   0.21483
  34        2S         -0.00842   0.10431  -0.48586
  35 5   H  1S         -0.06247   0.03702  -0.00592
  36        2S          0.20378  -0.37680   0.07654
  37 6   H  1S          0.17577   0.01401  -0.07564
  38        2S          0.06879  -0.51270  -0.03864
     Density Matrix:
                           1         2         3         4         5
   1 1   C  1S          2.05766
   2        2S         -0.07282   0.34737
   3        2PX         0.01054  -0.01953   0.47139
   4        2PY         0.00154  -0.00303   0.02110   0.24749
   5        2PZ        -0.00177  -0.00097   0.02113   0.05121   0.49160
   6        3S         -0.16518   0.29166  -0.20099   0.03636   0.03051
   7        3PX         0.01274  -0.02836   0.08436   0.01116   0.02014
   8        3PY        -0.00666   0.01717   0.02455   0.10430   0.02665
   9        3PZ        -0.00945   0.01562   0.01623   0.03031   0.20218
  10        4XX        -0.01476  -0.00848   0.03426   0.00513   0.00693
  11        4YY        -0.01367  -0.01435  -0.01249  -0.00755  -0.00660
  12        4ZZ        -0.02532   0.01026  -0.03411  -0.00431  -0.00293
  13        4XY        -0.00156   0.00279  -0.01083   0.02181  -0.00205
  14        4XZ         0.00421  -0.00879   0.00605  -0.00538  -0.00013
  15        4YZ        -0.00238   0.00548  -0.00354  -0.00273  -0.02244
  16 2   N  1S          0.01509  -0.02367  -0.09585   0.03013  -0.01173
  17        2S         -0.02699   0.03609   0.19929  -0.07096   0.03193
  18        2PX         0.09382  -0.18656  -0.37870   0.00851  -0.05272
  19        2PY        -0.03261   0.06313   0.03877   0.31496  -0.05735
  20        2PZ         0.01959  -0.04406  -0.06107  -0.10313   0.03907
  21        3S          0.02787  -0.06919   0.17957  -0.08636   0.01836
  22        3PX         0.02725  -0.05429  -0.15667  -0.00498  -0.02374
  23        3PY        -0.02042   0.03789   0.00699   0.18820  -0.03882
  24        3PZ         0.01221  -0.02744  -0.04544  -0.08409  -0.01630
  25        4XX        -0.00730   0.01302   0.00548  -0.00508   0.00664
  26        4YY         0.00165  -0.00374  -0.00796   0.01322  -0.00336
  27        4ZZ         0.00264  -0.00636  -0.01388  -0.00266  -0.00337
  28        4XY         0.00454  -0.00876  -0.01418  -0.01718  -0.00493
  29        4XZ        -0.00139   0.00278   0.00300  -0.00356  -0.02679
  30        4YZ        -0.00004  -0.00114  -0.00269  -0.00432  -0.00317
  31 3   H  1S         -0.06838   0.13471  -0.13640   0.01158   0.22205
  32        2S         -0.01498   0.03842  -0.08303   0.01703   0.11690
  33 4   H  1S         -0.06112   0.12241  -0.10697  -0.09085  -0.26570
  34        2S         -0.00977   0.02895  -0.09917  -0.04504  -0.14831
  35 5   H  1S          0.01113  -0.02503  -0.05248   0.04551   0.04572
  36        2S          0.00137  -0.00352  -0.04067   0.03770   0.07575
  37 6   H  1S          0.00227  -0.01016  -0.03214   0.03682  -0.04900
  38        2S          0.00809  -0.01329  -0.07320  -0.01335  -0.09573
                           6         7         8         9        10
   6        3S          0.34242
   7        3PX        -0.04879   0.02095
   8        3PY         0.02525   0.00699   0.04681
   9        3PZ         0.02200   0.00781   0.01814   0.08974
  10        4XX        -0.02011   0.00589   0.00280   0.00351   0.00314
  11        4YY        -0.00725  -0.00131  -0.00432  -0.00379  -0.00069
  12        4ZZ         0.02279  -0.00665  -0.00243  -0.00157  -0.00259
  13        4XY         0.01046  -0.00175   0.00848  -0.00080  -0.00054
  14        4XZ        -0.01018   0.00145  -0.00392  -0.00357   0.00051
  15        4YZ         0.00406  -0.00183  -0.00131  -0.00929  -0.00059
  16 2   N  1S          0.04542  -0.00053   0.01098  -0.01070  -0.01142
  17        2S         -0.11093   0.00023  -0.02674   0.02366   0.02167
  18        2PX        -0.03950  -0.07460  -0.02371  -0.02781  -0.01803
  19        2PY         0.08570   0.00304   0.12803  -0.02139   0.00612
  20        2PZ        -0.01973  -0.01070  -0.07055  -0.04063  -0.00442
  21        3S         -0.20874  -0.00409  -0.03799   0.02187   0.02411
  22        3PX        -0.00210  -0.03476  -0.01260  -0.01114  -0.00743
  23        3PY         0.05664  -0.00141   0.07693  -0.01244   0.00257
  24        3PZ        -0.01286  -0.00811  -0.05250  -0.04303  -0.00435
  25        4XX         0.00891   0.00070  -0.00051   0.00419   0.00002
  26        4YY         0.00290  -0.00078   0.00417  -0.00307  -0.00041
  27        4ZZ        -0.00143  -0.00277  -0.00212  -0.00182  -0.00074
  28        4XY        -0.00648  -0.00330  -0.00838  -0.00304  -0.00085
  29        4XZ         0.00043   0.00025  -0.00179  -0.01215  -0.00039
  30        4YZ        -0.00180  -0.00160  -0.00347  -0.00406   0.00000
  31 3   H  1S          0.18187  -0.02625   0.01200   0.10027  -0.00973
  32        2S          0.07363  -0.01336   0.01046   0.05551  -0.00514
  33 4   H  1S          0.11241  -0.03817  -0.03896  -0.11057  -0.01340
  34        2S          0.04523  -0.02679  -0.02580  -0.06908  -0.00915
  35 5   H  1S         -0.01523  -0.01811   0.02310   0.04305   0.00172
  36        2S          0.01639  -0.00686   0.02036   0.04595  -0.00054
  37 6   H  1S         -0.00774  -0.01905  -0.00152  -0.04204   0.00140
  38        2S          0.00958  -0.01727  -0.01663  -0.05466  -0.00559
                          11        12        13        14        15
  11        4YY         0.00137
  12        4ZZ         0.00081   0.00300
  13        4XY        -0.00041   0.00063   0.00248
  14        4XZ         0.00029  -0.00055  -0.00027   0.00220
  15        4YZ         0.00015   0.00048   0.00021   0.00001   0.00114
  16 2   N  1S          0.00401   0.00703   0.00503  -0.00146   0.00036
  17        2S         -0.00742  -0.01466  -0.01107   0.00395  -0.00126
  18        2PX         0.01639   0.01966   0.01017  -0.00178   0.00146
  19        2PY        -0.01204  -0.00413   0.03184   0.00019   0.00394
  20        2PZ         0.00487   0.00530  -0.00130   0.03225   0.00073
  21        3S         -0.00256  -0.01694  -0.01352   0.00235  -0.00247
  22        3PX         0.00594   0.00873   0.00370  -0.00098   0.00110
  23        3PY        -0.00671  -0.00139   0.01916  -0.00150   0.00252
  24        3PZ         0.00427   0.00423  -0.00201   0.02031   0.00232
  25        4XX        -0.00053   0.00005  -0.00079  -0.00080  -0.00019
  26        4YY         0.00002   0.00038   0.00173   0.00076   0.00022
  27        4ZZ         0.00068   0.00078   0.00013   0.00005   0.00013
  28        4XY         0.00117   0.00087  -0.00121   0.00044   0.00019
  29        4XZ         0.00021   0.00005   0.00009   0.00063   0.00129
  30        4YZ         0.00015   0.00021   0.00014   0.00174   0.00031
  31 3   H  1S         -0.00421   0.01284   0.00205  -0.00815  -0.00761
  32        2S         -0.00088   0.00632   0.00155  -0.00623  -0.00469
  33 4   H  1S          0.00275   0.01257  -0.00085  -0.00076   0.01474
  34        2S          0.00379   0.00858   0.00165   0.00316   0.00812
  35 5   H  1S          0.00010   0.00082   0.00206  -0.01327  -0.00321
  36        2S         -0.00054   0.00161   0.00164  -0.00917  -0.00403
  37 6   H  1S         -0.00065   0.00135   0.00909   0.01447   0.00382
  38        2S          0.00336   0.00529   0.00394   0.00780   0.00529
                          16        17        18        19        20
  16 2   N  1S          2.06456
  17        2S         -0.12501   0.40648
  18        2PX         0.00270  -0.00515   0.56185
  19        2PY         0.01644  -0.04609  -0.00963   0.49418
  20        2PZ        -0.00305   0.01883   0.04138  -0.01203   0.55190
  21        3S         -0.20950   0.45854   0.12627  -0.09647  -0.03024
  22        3PX        -0.01062   0.02179   0.23031  -0.00715   0.01988
  23        3PY         0.01123  -0.03229   0.01114   0.28934  -0.02890
  24        3PZ         0.00500  -0.00240   0.02343  -0.02598   0.34650
  25        4XX        -0.01639   0.00045  -0.01638  -0.00959  -0.01055
  26        4YY        -0.01214  -0.01067   0.00867   0.02242   0.01328
  27        4ZZ        -0.01669  -0.00077   0.01938  -0.00366   0.00354
  28        4XY        -0.00295   0.00653   0.02112  -0.02271   0.00992
  29        4XZ         0.00342  -0.00719  -0.00823   0.00480   0.00745
  30        4YZ        -0.00403   0.00884   0.00711   0.00403   0.02947
  31 3   H  1S          0.01212  -0.02796   0.01931  -0.03580  -0.02980
  32        2S          0.01158  -0.02520   0.04404  -0.02256  -0.05362
  33 4   H  1S          0.00591  -0.01871   0.02870  -0.02254   0.03369
  34        2S          0.00902  -0.02057   0.07933   0.00308   0.08032
  35 5   H  1S         -0.04306   0.08654   0.15617  -0.00217  -0.20547
  36        2S         -0.00508   0.00676   0.06311  -0.00677  -0.13300
  37 6   H  1S         -0.04195   0.08897   0.10763   0.15002   0.24252
  38        2S          0.00835  -0.01826   0.07993   0.04389   0.14105
                          21        22        23        24        25
  21        3S          0.57706
  22        3PX         0.07393   0.09739
  23        3PY        -0.05729   0.00276   0.17106
  24        3PZ        -0.03414   0.01116  -0.02865   0.22266
  25        4XX        -0.00296  -0.00609  -0.00554  -0.00653   0.00128
  26        4YY        -0.01237   0.00283   0.01290   0.00780  -0.00087
  27        4ZZ         0.00421   0.00802  -0.00162   0.00246  -0.00040
  28        4XY         0.01326   0.00922  -0.01302   0.00737  -0.00034
  29        4XZ        -0.01108  -0.00354   0.00239   0.00724  -0.00027
  30        4YZ         0.00777   0.00367   0.00130   0.01840  -0.00080
  31 3   H  1S         -0.06003   0.01576  -0.01623  -0.03489   0.00767
  32        2S         -0.02536   0.01973  -0.00840  -0.04260   0.00318
  33 4   H  1S         -0.04487   0.02311  -0.00970   0.04749   0.00059
  34        2S         -0.02560   0.03718   0.00298   0.06408  -0.00334
  35 5   H  1S          0.15665   0.06842   0.01141  -0.13969   0.00020
  36        2S          0.03467   0.02597   0.00354  -0.09194   0.00195
  37 6   H  1S          0.08453   0.05109   0.08042   0.14621  -0.01044
  38        2S         -0.02357   0.03403   0.02320   0.09546  -0.00606
                          26        27        28        29        30
  26        4YY         0.00182
  27        4ZZ         0.00035   0.00085
  28        4XY        -0.00060   0.00094   0.00206
  29        4XZ         0.00045  -0.00016  -0.00011   0.00197
  30        4YZ         0.00082   0.00034   0.00065   0.00049   0.00189
  31 3   H  1S         -0.00281   0.00018  -0.00107  -0.01339  -0.00387
  32        2S         -0.00172   0.00106   0.00003  -0.00838  -0.00414
  33 4   H  1S         -0.00018   0.00274   0.00628   0.01547   0.00467
  34        2S          0.00334   0.00376   0.00574   0.00865   0.00625
  35 5   H  1S         -0.00487   0.00419   0.00284  -0.01127  -0.00819
  36        2S         -0.00299   0.00133  -0.00041  -0.00843  -0.00715
  37 6   H  1S          0.01227   0.00370   0.00227   0.00426   0.01774
  38        2S          0.00691   0.00342   0.00400   0.00687   0.00922
                          31        32        33        34        35
  31 3   H  1S          0.19988
  32        2S          0.10008   0.05717
  33 4   H  1S         -0.04804  -0.03977   0.22017
  34        2S         -0.03587  -0.02582   0.11867   0.07886
  35 5   H  1S          0.04848   0.04913  -0.04571  -0.03272   0.16272
  36        2S          0.05936   0.04524  -0.04996  -0.03557   0.08863
  37 6   H  1S         -0.04459  -0.03906   0.03656   0.05921  -0.04761
  38        2S         -0.04232  -0.02984   0.06956   0.06232  -0.04922
                          36        37        38
  36        2S          0.05995
  37 6   H  1S         -0.05491   0.19839
  38        2S         -0.04321   0.09324   0.06877
    Full Mulliken population analysis:
                           1         2         3         4         5
   1 1   C  1S          2.05766
   2        2S         -0.01595   0.34737
   3        2PX         0.00000   0.00000   0.47139
   4        2PY         0.00000   0.00000   0.00000   0.24749
   5        2PZ         0.00000   0.00000   0.00000   0.00000   0.49160
   6        3S         -0.03044   0.23691   0.00000   0.00000   0.00000
   7        3PX         0.00000   0.00000   0.04806   0.00000   0.00000
   8        3PY         0.00000   0.00000   0.00000   0.05943   0.00000
   9        3PZ         0.00000   0.00000   0.00000   0.00000   0.11519
  10        4XX        -0.00117  -0.00602   0.00000   0.00000   0.00000
  11        4YY        -0.00108  -0.01019   0.00000   0.00000   0.00000
  12        4ZZ        -0.00200   0.00729   0.00000   0.00000   0.00000
  13        4XY         0.00000   0.00000   0.00000   0.00000   0.00000
  14        4XZ         0.00000   0.00000   0.00000   0.00000   0.00000
  15        4YZ         0.00000   0.00000   0.00000   0.00000   0.00000
  16 2   N  1S          0.00000  -0.00078  -0.00614  -0.00029  -0.00003
  17        2S         -0.00061   0.00882   0.06869   0.00368   0.00048
  18        2PX        -0.00452   0.05369   0.12647   0.00061   0.00109
  19        2PY        -0.00024   0.00274   0.00277   0.04108  -0.00018
  20        2PZ        -0.00004   0.00055   0.00126  -0.00032   0.00548
  21        3S          0.00226  -0.02963   0.05559   0.00403   0.00025
  22        3PX        -0.00422   0.03263   0.02334  -0.00034   0.00047
  23        3PY        -0.00048   0.00343   0.00048   0.05635  -0.00012
  24        3PZ        -0.00008   0.00072   0.00091  -0.00025  -0.00503
  25        4XX        -0.00086   0.00570   0.00244   0.00059   0.00022
  26        4YY         0.00001  -0.00061  -0.00177   0.00020  -0.00003
  27        4ZZ         0.00001  -0.00100  -0.00293   0.00008   0.00002
  28        4XY        -0.00014   0.00064   0.00147   0.00447   0.00003
  29        4XZ        -0.00001   0.00006   0.00009   0.00002   0.00750
  30        4YZ         0.00000   0.00000   0.00002   0.00005  -0.00013
  31 3   H  1S         -0.00192   0.03399   0.01888  -0.00079   0.06913
  32        2S         -0.00132   0.01769   0.00876  -0.00088   0.02774
  33 4   H  1S         -0.00242   0.03696   0.00063   0.01664   0.09359
  34        2S         -0.00095   0.01436   0.00039   0.00553   0.03502
  35 5   H  1S          0.00000  -0.00016  -0.00067  -0.00001  -0.00023
  36        2S          0.00002  -0.00035  -0.00397  -0.00004  -0.00297
  37 6   H  1S          0.00000  -0.00053  -0.00244   0.00117  -0.00216
  38        2S          0.00031  -0.00321  -0.01186  -0.00090  -0.00900
                           6         7         8         9        10
   6        3S          0.34242
   7        3PX         0.00000   0.02095
   8        3PY         0.00000   0.00000   0.04681
   9        3PZ         0.00000   0.00000   0.00000   0.08974
  10        4XX        -0.01267   0.00000   0.00000   0.00000   0.00314
  11        4YY        -0.00457   0.00000   0.00000   0.00000  -0.00023
  12        4ZZ         0.01435   0.00000   0.00000   0.00000  -0.00086
  13        4XY         0.00000   0.00000   0.00000   0.00000   0.00000
  14        4XZ         0.00000   0.00000   0.00000   0.00000   0.00000
  15        4YZ         0.00000   0.00000   0.00000   0.00000   0.00000
  16 2   N  1S          0.00301  -0.00006  -0.00019  -0.00005  -0.00105
  17        2S         -0.04033   0.00012   0.00211   0.00054   0.00906
  18        2PX         0.00772   0.00532  -0.00104   0.00035   0.00746
  19        2PY         0.00252   0.00013   0.02724  -0.00004   0.00064
  20        2PZ         0.00017   0.00014  -0.00013  -0.00889   0.00013
  21        3S         -0.13137  -0.00255   0.00358   0.00059   0.01021
  22        3PX         0.00117  -0.00250  -0.00105   0.00027   0.00312
  23        3PY         0.00475  -0.00012   0.04713  -0.00005   0.00026
  24        3PZ         0.00031   0.00019  -0.00019  -0.02686   0.00013
  25        4XX         0.00366   0.00028   0.00005   0.00011   0.00001
  26        4YY         0.00094  -0.00037  -0.00017  -0.00006  -0.00010
  27        4ZZ        -0.00046  -0.00131   0.00015  -0.00002  -0.00017
  28        4XY         0.00015   0.00003   0.00141   0.00000   0.00011
  29        4XZ         0.00000   0.00000   0.00000   0.00210  -0.00001
  30        4YZ         0.00000   0.00000   0.00003  -0.00011   0.00000
  31 3   H  1S          0.06605   0.00535  -0.00120   0.04599  -0.00153
  32        2S          0.05071   0.00313  -0.00120   0.02924  -0.00181
  33 4   H  1S          0.04435   0.00029   0.00930   0.05075  -0.00178
  34        2S          0.03275   0.00023   0.00684   0.03523  -0.00336
  35 5   H  1S         -0.00101  -0.00304  -0.00004  -0.00290   0.00002
  36        2S          0.00403  -0.00259  -0.00008  -0.00696  -0.00006
  37 6   H  1S         -0.00137  -0.00568  -0.00019  -0.00727   0.00011
  38        2S          0.00427  -0.00786  -0.00317  -0.01445  -0.00126
                          11        12        13        14        15
  11        4YY         0.00137
  12        4ZZ         0.00027   0.00300
  13        4XY         0.00000   0.00000   0.00248
  14        4XZ         0.00000   0.00000   0.00000   0.00220
  15        4YZ         0.00000   0.00000   0.00000   0.00000   0.00114
  16 2   N  1S          0.00002   0.00001  -0.00012  -0.00001   0.00000
  17        2S         -0.00079  -0.00146   0.00092   0.00009   0.00000
  18        2PX        -0.00238  -0.00262   0.00112   0.00006   0.00001
  19        2PY         0.00025  -0.00008   0.00709   0.00000   0.00004
  20        2PZ        -0.00003   0.00003  -0.00001   0.00784  -0.00003
  21        3S         -0.00077  -0.00506   0.00044   0.00002   0.00000
  22        3PX        -0.00283  -0.00412   0.00007   0.00001   0.00000
  23        3PY        -0.00023  -0.00010   0.00400   0.00000   0.00002
  24        3PZ        -0.00009  -0.00004   0.00000   0.00438  -0.00008
  25        4XX        -0.00013   0.00001   0.00010  -0.00003   0.00000
  26        4YY         0.00000   0.00002   0.00008   0.00001   0.00000
  27        4ZZ         0.00004   0.00011  -0.00001   0.00000   0.00000
  28        4XY         0.00005  -0.00004   0.00044   0.00000   0.00000
  29        4XZ         0.00000   0.00000   0.00000  -0.00025   0.00011
  30        4YZ         0.00000   0.00000   0.00000   0.00014   0.00004
  31 3   H  1S         -0.00050   0.00469   0.00009   0.00162   0.00074
  32        2S         -0.00030   0.00256   0.00002   0.00032   0.00012
  33 4   H  1S          0.00057   0.00520   0.00000  -0.00001   0.00373
  34        2S          0.00145   0.00368   0.00000   0.00001   0.00045
  35 5   H  1S          0.00000   0.00000   0.00000   0.00009   0.00000
  36        2S         -0.00003   0.00011   0.00000   0.00032   0.00000
  37 6   H  1S         -0.00002   0.00005   0.00040   0.00089   0.00010
  38        2S          0.00059   0.00098   0.00017   0.00046   0.00013
                          16        17        18        19        20
  16 2   N  1S          2.06456
  17        2S         -0.02778   0.40648
  18        2PX         0.00000   0.00000   0.56185
  19        2PY         0.00000   0.00000   0.00000   0.49418
  20        2PZ         0.00000   0.00000   0.00000   0.00000   0.55190
  21        3S         -0.03601   0.35560   0.00000   0.00000   0.00000
  22        3PX         0.00000   0.00000   0.11960   0.00000   0.00000
  23        3PY         0.00000   0.00000   0.00000   0.15025   0.00000
  24        3PZ         0.00000   0.00000   0.00000   0.00000   0.17994
  25        4XX        -0.00083   0.00029   0.00000   0.00000   0.00000
  26        4YY        -0.00061  -0.00679   0.00000   0.00000   0.00000
  27        4ZZ        -0.00084  -0.00049   0.00000   0.00000   0.00000
  28        4XY         0.00000   0.00000   0.00000   0.00000   0.00000
  29        4XZ         0.00000   0.00000   0.00000   0.00000   0.00000
  30        4YZ         0.00000   0.00000   0.00000   0.00000   0.00000
  31 3   H  1S          0.00000  -0.00034  -0.00038   0.00002  -0.00035
  32        2S          0.00023  -0.00339  -0.00415   0.00006  -0.00303
  33 4   H  1S          0.00001  -0.00085  -0.00164   0.00034  -0.00161
  34        2S          0.00033  -0.00456  -0.00911  -0.00009  -0.00775
  35 5   H  1S         -0.00052   0.01181   0.02162  -0.00005   0.02796
  36        2S         -0.00030   0.00226   0.00832  -0.00015   0.01724
  37 6   H  1S         -0.00120   0.02068   0.00608   0.03129   0.05031
  38        2S          0.00063  -0.00743   0.00293   0.00595   0.01900
                          21        22        23        24        25
  21        3S          0.57706
  22        3PX         0.00000   0.09739
  23        3PY         0.00000   0.00000   0.17106
  24        3PZ         0.00000   0.00000   0.00000   0.22266
  25        4XX        -0.00198   0.00000   0.00000   0.00000   0.00128
  26        4YY        -0.00829   0.00000   0.00000   0.00000  -0.00029
  27        4ZZ         0.00282   0.00000   0.00000   0.00000  -0.00013
  28        4XY         0.00000   0.00000   0.00000   0.00000   0.00000
  29        4XZ         0.00000   0.00000   0.00000   0.00000   0.00000
  30        4YZ         0.00000   0.00000   0.00000   0.00000   0.00000
  31 3   H  1S         -0.00592  -0.00330   0.00010  -0.00439   0.00031
  32        2S         -0.00804  -0.00751   0.00009  -0.00973   0.00056
  33 4   H  1S         -0.00819  -0.00656   0.00073  -0.01133   0.00006
  34        2S         -0.01149  -0.01460  -0.00031  -0.02115  -0.00082
  35 5   H  1S          0.04746   0.02435   0.00070   0.04886   0.00004
  36        2S          0.02068   0.01022   0.00024   0.03556   0.00067
  37 6   H  1S          0.03268   0.00528   0.03068   0.05547  -0.00147
  38        2S         -0.01612   0.00349   0.00878   0.03595  -0.00222
                          26        27        28        29        30
  26        4YY         0.00182
  27        4ZZ         0.00012   0.00085
  28        4XY         0.00000   0.00000   0.00206
  29        4XZ         0.00000   0.00000   0.00000   0.00197
  30        4YZ         0.00000   0.00000   0.00000   0.00000   0.00189
  31 3   H  1S         -0.00002   0.00000   0.00000   0.00047   0.00000
  32        2S         -0.00020   0.00015   0.00000   0.00051   0.00001
  33 4   H  1S         -0.00001   0.00021   0.00021   0.00161   0.00013
  34        2S          0.00067   0.00087   0.00014   0.00065   0.00012
  35 5   H  1S         -0.00038   0.00085   0.00011   0.00256   0.00032
  36        2S         -0.00089   0.00045  -0.00001   0.00063   0.00009
  37 6   H  1S          0.00368   0.00110   0.00018   0.00034   0.00522
  38        2S          0.00277   0.00137   0.00007   0.00012   0.00060
                          31        32        33        34        35
  31 3   H  1S          0.19988
  32        2S          0.06588   0.05717
  33 4   H  1S         -0.00033  -0.00401   0.22017
  34        2S         -0.00362  -0.00815   0.07812   0.07886
  35 5   H  1S          0.00000   0.00039  -0.00020  -0.00275   0.16272
  36        2S          0.00047   0.00296  -0.00421  -0.01004   0.05835
  37 6   H  1S         -0.00035  -0.00416   0.00003   0.00249  -0.00071
  38        2S         -0.00451  -0.00973   0.00293   0.01147  -0.00676
                          36        37        38
  36        2S          0.05995
  37 6   H  1S         -0.00754   0.19839
  38        2S         -0.01649   0.06138   0.06877
     Gross orbital populations:
                           1
   1 1   C  1S          1.99183
   2        2S          0.73512
   3        2PX         0.80185
   4        2PY         0.43760
   5        2PZ         0.82793
   6        3S          0.59804
   7        3PX         0.05814
   8        3PY         0.19542
   9        3PZ         0.30246
  10        4XX         0.00230
  11        4YY        -0.01955
  12        4ZZ         0.02599
  13        4XY         0.01728
  14        4XZ         0.01816
  15        4YZ         0.00653
  16 2   N  1S          1.99199
  17        2S          0.79683
  18        2PX         0.89848
  19        2PY         0.76577
  20        2PZ         0.83975
  21        3S          0.84785
  22        3PX         0.27436
  23        3PY         0.47767
  24        3PZ         0.50587
  25        4XX         0.00759
  26        4YY        -0.01030
  27        4ZZ         0.00184
  28        4XY         0.01138
  29        4XZ         0.01846
  30        4YZ         0.00844
  31 3   H  1S          0.48422
  32        2S          0.20066
  33 4   H  1S          0.52342
  34        2S          0.21089
  35 5   H  1S          0.38877
  36        2S          0.16588
  37 6   H  1S          0.47290
  38        2S          0.11818
          Condensed to atoms (all electrons):
               1          2          3          4          5          6
     1  C    4.921416   0.395124   0.375385   0.389436  -0.020531  -0.061733
     2  N    0.395124   6.606158  -0.048253  -0.093991   0.280714   0.296230
     3  H    0.375385  -0.048253   0.388807  -0.016112   0.003814  -0.018754
     4  H    0.389436  -0.093991  -0.016112   0.455271  -0.017205   0.016916
     5  H   -0.020531   0.280714   0.003814  -0.017205   0.339356  -0.031501
     6  H   -0.061733   0.296230  -0.018754   0.016916  -0.031501   0.389916
 Mulliken charges:
               1
     1  C    0.000904
     2  N   -0.435981
     3  H    0.315114
     4  H    0.265685
     5  H    0.445353
     6  H    0.408926
 Sum of Mulliken charges =   1.00000
 Mulliken charges with hydrogens summed into heavy atoms:
               1
     1  C    0.581702
     2  N    0.418298
 Electronic spatial extent (au):  <R**2>=            245.4763
 Charge=              1.0000 electrons
 Dipole moment (field-independent basis, Debye):
    X=             -7.4367    Y=              2.3151    Z=              0.4411  Tot=              7.8012
 Quadrupole moment (field-independent basis, Debye-Ang):
   XX=              4.3092   YY=             -9.8414   ZZ=             -7.7367
   XY=             -2.5426   XZ=             -3.0813   YZ=              1.2012
 Traceless Quadrupole moment (field-independent basis, Debye-Ang):
   XX=              8.7321   YY=             -5.4184   ZZ=             -3.3137
   XY=             -2.5426   XZ=             -3.0813   YZ=              1.2012
 Octapole moment (field-independent basis, Debye-Ang**2):
  XXX=             25.7396  YYY=             -8.4275  ZZZ=             -3.0253  XYY=             18.6341
  XXY=              0.4846  XXZ=              7.0177  XZZ=             14.1159  YZZ=             -1.9315
  YYZ=             -0.3457  XYZ=             -2.0092
 Hexadecapole moment (field-independent basis, Debye-Ang**3):
 XXXX=           -179.8831 YYYY=            -16.0174 ZZZZ=            -16.4192 XXXY=             11.1900
 XXXZ=            -15.4075 YYYX=             16.0281 YYYZ=             -0.9346 ZZZX=              3.9348
 ZZZY=             -1.0215 XXYY=            -43.9406 XXZZ=            -32.1889 YYZZ=             -5.1329
 XXYZ=              2.1441 YYXZ=              1.8320 ZZXY=              5.0127
 N-N= 4.068026905937D+01 E-N=-2.966636162035D+02  KE= 9.439964158508D+01
 Orbital energies and kinetic energies (alpha):
                                 1                 2
   1         O               -14.698172         21.953969
   2         O               -10.534261         15.870900
   3         O                -1.315913          2.128065
   4         O                -0.928401          1.588550
   5         O                -0.869394          1.246134
   6         O                -0.750441          1.421543
   7         O                -0.711165          1.563939
   8         O                -0.610223          1.426719
   9         V                -0.339614          1.551704
  10         V                -0.234911          1.343362
  11         V                -0.182191          1.110833
  12         V                -0.110826          1.128317
  13         V                -0.060187          0.987037
  14         V                 0.057169          1.139825
  15         V                 0.253900          1.792915
  16         V                 0.301098          1.918351
  17         V                 0.320898          1.711722
  18         V                 0.410408          2.370699
  19         V                 0.432658          1.898636
  20         V                 0.533978          2.440088
  21         V                 0.559008          2.540699
  22         V                 0.576875          2.526097
  23         V                 0.611656          2.674465
  24         V                 0.669378          2.351892
  25         V                 0.761734          3.083689
  26         V                 0.996824          2.461308
  27         V                 1.179731          2.879007
  28         V                 1.312481          2.930098
  29         V                 1.366582          2.900781
  30         V                 1.678864          3.321940
  31         V                 1.820557          3.473965
  32         V                 2.010212          3.726553
  33         V                 2.091575          3.909242
  34         V                 2.228164          3.903540
  35         V                 2.270697          3.983554
  36         V                 2.575541          5.641809
  37         V                 3.450523          9.942891
  38         V                 3.807724         10.028947
 Total kinetic energy from orbitals= 9.439964158508D+01

 Test job not archived.
 1\1\GINC-EAM\SP\RB3LYP\6-31G(d)\C1H4N1(1+)\DULIKAI\30-Apr-2014\0\\# b3
 lyp/6-31g* scf=(tight,maxcycle=10000) iop(9/40=20) nosymm pop=full\\[0
 ] [0]\\1,1\C,0,-2.3927183,0.3813235,0.1093563\N,0,-1.2443361,0.2083512
 ,0.1592733\H,0,-2.8408849,0.1617052,1.1173091\H,0,-2.4081357,-0.101302
 1,-0.8189348\H,0,-0.3669429,0.3596091,-0.7031469\H,0,-1.0449305,0.9447
 395,0.8916351\\Version=EM64L-G09RevD.01\HF=-94.8009034\RMSD=3.035e-09\
 Dipole=0.3786918,0.3426642,-0.0774302\Quadrupole=6.4921314,-4.0284654,
 -2.463666,-1.8903543,-2.2908595,0.8930341\PG=C01 [X(C1H4N1)]\\@


 Spring appears, and we are once more children.
                                  -- Anonymous
 Job cpu time:       0 days  0 hours  0 minutes  2.8 seconds.
 File lengths (MBytes):  RWF=      5 Int=      0 D2E=      0 Chk=      1 Scr=      1
 Normal termination of Gaussian 09 at Wed Apr 30 17:11:48 2014.
 Initial command:
 /opt/g09_D01_em64t/g09/l1.exe "/tmp/Gau-7704.inp" -scrdir="/tmp/"
 Entering Link 1 = /opt/g09_D01_em64t/g09/l1.exe PID=      7716.
  
 Copyright (c) 1988,1990,1992,1993,1995,1998,2003,2009,2013,
            Gaussian, Inc.  All Rights Reserved.
  
 This is part of the Gaussian(R) 09 program.  It is based on
 the Gaussian(R) 03 system (copyright 2003, Gaussian, Inc.),
 the Gaussian(R) 98 system (copyright 1998, Gaussian, Inc.),
 the Gaussian(R) 94 system (copyright 1995, Gaussian, Inc.),
 the Gaussian 92(TM) system (copyright 1992, Gaussian, Inc.),
 the Gaussian 90(TM) system (copyright 1990, Gaussian, Inc.),
 the Gaussian 88(TM) system (copyright 1988, Gaussian, Inc.),
 the Gaussian 86(TM) system (copyright 1986, Carnegie Mellon
 University), and the Gaussian 82(TM) system (copyright 1983,
 Carnegie Mellon University). Gaussian is a federally registered
 trademark of Gaussian, Inc.
  
 This software contains proprietary and confidential information,
 including trade secrets, belonging to Gaussian, Inc.
  
 This software is provided under written license and may be
 used, copied, transmitted, or stored only in accord with that
 written license.
  
 The following legend is applicable only to US Government
 contracts under FAR:
  
                    RESTRICTED RIGHTS LEGEND
  
 Use, reproduction and disclosure by the US Government is
 subject to restrictions as set forth in subparagraphs (a)
 and (c) of the Commercial Computer Software - Restricted
 Rights clause in FAR 52.227-19.
  
 Gaussian, Inc.
 340 Quinnipiac St., Bldg. 40, Wallingford CT 06492
  
  
 ---------------------------------------------------------------
 Warning -- This program may not be used in any manner that
 competes with the business of Gaussian, Inc. or will provide
 assistance to any competitor of Gaussian, Inc.  The licensee
 of this program is prohibited from giving any competitor of
 Gaussian, Inc. access to this program.  By using this program,
 the user acknowledges that Gaussian, Inc. is engaged in the
 business of creating and licensing software in the field of
 computational chemistry and represents and warrants to the
 licensee that it is not a competitor of Gaussian, Inc. and that
 it will not use this program in any manner prohibited above.
 ---------------------------------------------------------------
  

 Cite this work as:
 Gaussian 09, Revision D.01,
 M. J. Frisch, G. W. Trucks, H. B. Schlegel, G. E. Scuseria, 
 M. A. Robb, J. R. Cheeseman, G. Scalmani, V. Barone, B. Mennucci, 
 G. A. Petersson, H. Nakatsuji, M. Caricato, X. Li, H. P. Hratchian, 
 A. F. Izmaylov, J. Bloino, G. Zheng, J. L. Sonnenberg, M. Hada, 
 M. Ehara, K. Toyota, R. Fukuda, J. Hasegawa, M. Ishida, T. Nakajima, 
 Y. Honda, O. Kitao, H. Nakai, T. Vreven, J. A. Montgomery, Jr., 
 J. E. Peralta, F. Ogliaro, M. Bearpark, J. J. Heyd, E. Brothers, 
 K. N. Kudin, V. N. Staroverov, T. Keith, R. Kobayashi, J. Normand, 
 K. Raghavachari, A. Rendell, J. C. Burant, S. S. Iyengar, J. Tomasi, 
 M. Cossi, N. Rega, J. M. Millam, M. Klene, J. E. Knox, J. B. Cross, 
 V. Bakken, C. Adamo, J. Jaramillo, R. Gomperts, R. E. Stratmann, 
 O. Yazyev, A. J. Austin, R. Cammi, C. Pomelli, J. W. Ochterski, 
 R. L. Martin, K. Morokuma, V. G. Zakrzewski, G. A. Voth, 
 P. Salvador, J. J. Dannenberg, S. Dapprich, A. D. Daniels, 
 O. Farkas, J. B. Foresman, J. V. Ortiz, J. Cioslowski, 
 and D. J. Fox, Gaussian, Inc., Wallingford CT, 2013.
 
 ******************************************
 Gaussian 09:  EM64L-G09RevD.01 24-Apr-2013
                30-Apr-2014 
 ******************************************
 %chk=gaussian.chk
 %mem=1GB
 %nproc=2
 Will use up to    2 processors via shared memory.
 %nproclinda=1
 Will use up to    1 processors via Linda.
 ----------------------------------------------------------------------
 # force b3lyp/ChkBasis scf=(tight,maxcycle=10000) iop(9/40=20) nosymm 
 pop=full geom=AllCheck Guess=Read
 ----------------------------------------------------------------------
 1/10=7,29=7,30=1,38=1/1,3;
 2/12=2,15=1,40=1/2;
 3/5=7,6=2,11=2,14=-4,16=1,25=1,30=1,67=1,71=1,74=-5,116=-2/1,2,3;
 4/5=1/1;
 5/5=2,7=10000,32=2,38=6/2;
 6/7=3,28=1/1;
 7/29=1,30=1/1,2,3,16;
 1/10=7,30=1/3;
 99//99;
 Structure from the checkpoint file:  "gaussian.chk"
 -------
 [0] [0]
 -------
 Charge =  1 Multiplicity = 1
 Z-Matrix found in file.
 C,0,-2.3927183,0.3813235,0.1093563
 N,0,-1.2443361,0.2083512,0.1592733
 H,0,-2.8408849,0.1617052,1.1173091
 H,0,-2.4081357,-0.1013021,-0.8189348
 H,0,-0.3669429,0.3596091,-0.7031469
 H,0,-1.0449305,0.9447395,0.8916351
 Recover connectivity data from disk.

 GradGradGradGradGradGradGradGradGradGradGradGradGradGradGradGradGradGrad
 Berny optimization.
 Initialization pass.
 Trust Radius=3.00D-01 FncErr=1.00D-07 GrdErr=1.00D-07
 Number of steps in this run=      2 maximum allowed number of steps=      2.
 GradGradGradGradGradGradGradGradGradGradGradGradGradGradGradGradGradGrad

                          Input orientation:                          
 ---------------------------------------------------------------------
 Center     Atomic      Atomic             Coordinates (Angstroms)
 Number     Number       Type             X           Y           Z
 ---------------------------------------------------------------------
      1          6           0       -2.392718    0.381324    0.109356
      2          7           0       -1.244336    0.208351    0.159273
      3          1           0       -2.840885    0.161705    1.117309
      4          1           0       -2.408136   -0.101302   -0.818935
      5          1           0       -0.366943    0.359609   -0.703147
      6          1           0       -1.044931    0.944740    0.891635
 ---------------------------------------------------------------------
                    Distance matrix (angstroms):
                    1          2          3          4          5
     1  C    0.000000
     2  N    1.162408   0.000000
     3  H    1.124746   1.862519   0.000000
     4  H    1.046370   1.551517   2.001371   0.000000
     5  H    2.182750   1.239543   3.077924   2.095785   0.000000
     6  H    1.657085   1.057537   1.972188   2.424578   1.829036
                    6
     6  H    0.000000
 Symmetry turned off by external request.
 Stoichiometry    CH4N(1+)
 Framework group  C1[X(CH4N)]
 Deg. of freedom    12
 Full point group                 C1      NOp   1
 Rotational constants (GHZ):    128.6991694     37.9846051     31.6862257
 Basis read from chk: "gaussian.chk" (6D, 7F)
    38 basis functions,    72 primitive gaussians,    38 cartesian basis functions
     8 alpha electrons        8 beta electrons
       nuclear repulsion energy        40.6802690594 Hartrees.
 NAtoms=    6 NActive=    6 NUniq=    6 SFac= 1.00D+00 NAtFMM=   60 NAOKFM=F Big=F
 Integral buffers will be    131072 words long.
 Raffenetti 2 integral format.
 Two-electron integral symmetry is turned off.
 One-electron integrals computed using PRISM.
 NBasis=    38 RedAO= T EigKep=  4.69D-03  NBF=    38
 NBsUse=    38 1.00D-06 EigRej= -1.00D+00 NBFU=    38
 Initial guess from the checkpoint file:  "gaussian.chk"
 B after Tr=     0.000000    0.000000    0.000000
         Rot=    1.000000    0.000000    0.000000    0.000000 Ang=   0.00 deg.
 Keep R1 ints in memory in canonical form, NReq=101191747.
 Requested convergence on RMS density matrix=1.00D-08 within**** cycles.
 Requested convergence on MAX density matrix=1.00D-06.
 Requested convergence on             energy=1.00D-06.
 No special actions if energy rises.
 SCF Done:  E(RB3LYP) =  -94.8009033696     A.U. after    1 cycles
            NFock=  1  Conv=0.94D-09     -V/T= 2.0043

 **********************************************************************

            Population analysis using the SCF density.

 **********************************************************************

 Alpha  occ. eigenvalues --  -14.69817 -10.53426  -1.31591  -0.92840  -0.86939
 Alpha  occ. eigenvalues --   -0.75044  -0.71116  -0.61022
 Alpha virt. eigenvalues --   -0.33961  -0.23491  -0.18219  -0.11083  -0.06019
 Alpha virt. eigenvalues --    0.05717   0.25390   0.30110   0.32090   0.41041
 Alpha virt. eigenvalues --    0.43266   0.53398   0.55901   0.57688   0.61166
 Alpha virt. eigenvalues --    0.66938   0.76173   0.99682   1.17973   1.31248
 Alpha virt. eigenvalues --    1.36658   1.67886   1.82056   2.01021   2.09157
 Alpha virt. eigenvalues --    2.22816   2.27070   2.57554   3.45052   3.80772
     Molecular Orbital Coefficients:
                           1         2         3         4         5
                           O         O         O         O         O
     Eigenvalues --   -14.69817 -10.53426  -1.31591  -0.92840  -0.86939
   1 1   C  1S          0.00013   0.99250  -0.13568   0.12797  -0.04661
   2        2S          0.00025   0.05042   0.25397  -0.26544   0.09040
   3        2PX        -0.00015   0.00199   0.19319   0.01066  -0.02427
   4        2PY         0.00000  -0.00020  -0.03192   0.11845   0.06145
   5        2PZ         0.00001   0.00009   0.00244   0.08858   0.31558
   6        3S         -0.00100  -0.00993   0.08613  -0.23938   0.13864
   7        3PX        -0.00055  -0.00081  -0.01227  -0.00016   0.00946
   8        3PY         0.00013   0.00085   0.00039   0.02534   0.01860
   9        3PZ         0.00002  -0.00029   0.01869   0.02416   0.09705
  10        4XX        -0.00054  -0.00913   0.01633   0.01524  -0.00245
  11        4YY         0.00004  -0.01035  -0.01663   0.00436  -0.00758
  12        4ZZ         0.00006  -0.01003  -0.00791  -0.01154   0.00476
  13        4XY         0.00007  -0.00012  -0.00486   0.01003   0.00799
  14        4XZ        -0.00002  -0.00001  -0.00049   0.01103   0.01694
  15        4YZ         0.00000   0.00014   0.00359  -0.00730  -0.01106
  16 2   N  1S          0.99260  -0.00067  -0.18496  -0.08360   0.04181
  17        2S          0.03508  -0.00021   0.37370   0.18113  -0.08143
  18        2PX        -0.00084   0.00039  -0.15110   0.31263  -0.13236
  19        2PY         0.00052  -0.00005   0.06093   0.14771   0.10615
  20        2PZ        -0.00014   0.00007   0.00255   0.11223   0.34299
  21        3S          0.00493   0.00116   0.34309   0.30027  -0.19253
  22        3PX        -0.00027   0.00038  -0.02781   0.12357  -0.05547
  23        3PY        -0.00002  -0.00054   0.02994   0.08538   0.04470
  24        3PZ        -0.00006  -0.00021  -0.01108   0.04347   0.18975
  25        4XX        -0.00794  -0.00039   0.00790  -0.01858   0.00057
  26        4YY        -0.00852  -0.00015  -0.00836   0.01135   0.01223
  27        4ZZ        -0.00850  -0.00026  -0.00541   0.00897  -0.00499
  28        4XY        -0.00011   0.00011  -0.00312   0.00616  -0.00932
  29        4XZ         0.00004  -0.00011  -0.00207  -0.01191  -0.00711
  30        4YZ         0.00000  -0.00015   0.00831   0.01213   0.01363
  31 3   H  1S         -0.00006  -0.00020   0.03772  -0.07508   0.15119
  32        2S         -0.00004   0.00202  -0.01285  -0.01543   0.04498
  33 4   H  1S         -0.00003  -0.00039   0.06467  -0.15681  -0.11768
  34        2S         -0.00007   0.00211   0.00327  -0.02937  -0.03958
  35 5   H  1S          0.00021   0.00000   0.04205   0.10915  -0.15153
  36        2S         -0.00043  -0.00018  -0.00916   0.02935  -0.04851
  37 6   H  1S          0.00031   0.00028   0.09443   0.17693   0.11469
  38        2S         -0.00043   0.00075  -0.01502   0.03976   0.02938
                           6         7         8         9        10
                           O         O         O         V         V
     Eigenvalues --    -0.75044  -0.71116  -0.61022  -0.33961  -0.23491
   1 1   C  1S          0.04989  -0.06472   0.01180  -0.04705  -0.02426
   2        2S         -0.09849   0.13318  -0.02404   0.09035   0.04649
   3        2PX         0.40992  -0.12331  -0.12008  -0.07651   0.06888
   4        2PY         0.07359   0.26849  -0.16560   0.48263   0.07704
   5        2PZ        -0.10334  -0.17831  -0.30965  -0.07295   0.05322
   6        3S         -0.21660   0.19977  -0.01851   0.34884   0.10993
   7        3PX         0.08982  -0.02957  -0.03597  -0.05190   0.09753
   8        3PY         0.03644   0.11142  -0.09314   0.48149   0.17497
   9        3PZ        -0.05175  -0.06299  -0.16695  -0.06239   0.07193
  10        4XX         0.02696  -0.00981  -0.01255  -0.00091  -0.01763
  11        4YY        -0.00704  -0.00765   0.01080   0.00249   0.00352
  12        4ZZ        -0.03105   0.01015   0.01074  -0.00943   0.00407
  13        4XY        -0.00207   0.03216  -0.00355  -0.00935  -0.00542
  14        4XZ         0.01203  -0.00877   0.02165   0.00461   0.02913
  15        4YZ         0.00151   0.01070   0.01625  -0.00305   0.00129
  16 2   N  1S         -0.00520   0.06364   0.00130  -0.04400   0.08696
  17        2S          0.01289  -0.15082   0.00276   0.09963  -0.17512
  18        2PX        -0.35279   0.06147   0.12082   0.08773  -0.21062
  19        2PY         0.13645   0.43467  -0.05231  -0.33674  -0.12621
  20        2PZ         0.02010  -0.09807   0.36836   0.07757   0.29245
  21        3S         -0.02679  -0.20679  -0.00924   0.31159  -0.86255
  22        3PX        -0.16060   0.02444   0.05645   0.07595  -0.27809
  23        3PY         0.06257   0.26423  -0.04014  -0.36766  -0.20436
  24        3PZ         0.01776  -0.06341   0.26263   0.08275   0.37763
  25        4XX        -0.00175  -0.00672  -0.01094  -0.00681   0.02783
  26        4YY         0.00318   0.02014   0.00842  -0.00433  -0.00068
  27        4ZZ        -0.01285  -0.00035   0.00737  -0.00582   0.01315
  28        4XY        -0.01719  -0.01814   0.01639  -0.02149  -0.00844
  29        4XZ         0.01400   0.00987   0.02223   0.00226  -0.02091
  30        4YZ        -0.00023  -0.00111   0.02327  -0.00468   0.00261
  31 3   H  1S         -0.21888  -0.00705  -0.14854  -0.10812  -0.10643
  32        2S         -0.12373  -0.00358  -0.10408  -0.15673  -0.27727
  33 4   H  1S         -0.06706   0.09599   0.23185  -0.08740   0.04082
  34        2S         -0.05481   0.06088   0.17400  -0.10169   0.26776
  35 5   H  1S         -0.13774   0.01555  -0.15969  -0.09995   0.27305
  36        2S         -0.08742   0.00622  -0.13782  -0.19990   1.10078
  37 6   H  1S          0.00299   0.09344   0.19256  -0.10602   0.00222
  38        2S         -0.01516   0.05690   0.16807  -0.15992   0.13364
                          11        12        13        14        15
                           V         V         V         V         V
     Eigenvalues --    -0.18219  -0.11083  -0.06019   0.05717   0.25390
   1 1   C  1S          0.07231  -0.08087  -0.00328  -0.08177   0.01060
   2        2S         -0.17061   0.15531  -0.01187   0.05919  -0.20641
   3        2PX         0.10753  -0.18550  -0.08938   0.03050  -0.33788
   4        2PY         0.10724  -0.19444   0.02863   0.04310  -0.72479
   5        2PZ        -0.05294  -0.02019   0.45667  -0.02552   0.00108
   6        3S         -0.76901   1.28081  -0.07718   3.71611  -0.91465
   7        3PX         0.31397  -0.37593  -0.20113   2.49708   0.03154
   8        3PY         0.35010  -0.37090   0.18558  -0.56364   1.08506
   9        3PZ         0.03903   0.00304   1.57218  -0.04447   0.02626
  10        4XX        -0.00984  -0.00161  -0.00855  -0.03205  -0.05181
  11        4YY         0.00680   0.01446   0.00748   0.00485  -0.01259
  12        4ZZ         0.01507  -0.02803   0.00226   0.04007   0.03721
  13        4XY        -0.00643  -0.01218   0.00589   0.01125  -0.03307
  14        4XZ        -0.01577  -0.00620   0.01329  -0.01101   0.00336
  15        4YZ         0.01251   0.00453   0.01795   0.00140   0.00573
  16 2   N  1S          0.04694   0.02871  -0.00320   0.07358  -0.03026
  17        2S         -0.10189  -0.02865  -0.00520  -0.07927   0.04589
  18        2PX        -0.03930  -0.11627   0.08650   0.25463   0.16949
  19        2PY        -0.22336  -0.14009   0.02098   0.03593  -0.20218
  20        2PZ        -0.23412  -0.21553  -0.10668   0.01288   0.20313
  21        3S         -0.65903  -0.48961   0.15175  -2.98947   0.77145
  22        3PX        -0.14810  -0.07316   0.06867   1.59721  -0.90290
  23        3PY        -0.48259  -0.18583   0.01655  -0.13021   0.14857
  24        3PZ        -0.40978  -0.42651  -0.48220   0.08365  -0.15991
  25        4XX        -0.00941   0.01881  -0.00836   0.00448   0.00986
  26        4YY         0.00514   0.01248   0.00714   0.02853  -0.00778
  27        4ZZ         0.02103  -0.00578  -0.00076   0.01686   0.03461
  28        4XY        -0.00048   0.01850  -0.00082  -0.00159   0.06201
  29        4XZ         0.02048   0.00623  -0.01540   0.00003  -0.00128
  30        4YZ         0.00545   0.00081   0.02355  -0.01888   0.02069
  31 3   H  1S          0.08454  -0.13005  -0.06873   0.09721   0.11822
  32        2S          0.65762  -0.95145  -1.58714  -0.25663   0.17231
  33 4   H  1S          0.05509  -0.14300   0.07727   0.12589   0.16107
  34        2S          0.47529  -1.20266   1.67628  -0.83670   0.00360
  35 5   H  1S         -0.08405   0.01986  -0.04438  -0.01151   0.01009
  36        2S         -0.15781  -0.04117  -0.42335  -0.31659   0.18760
  37 6   H  1S          0.16127   0.13050   0.06043  -0.07440   0.16259
  38        2S          1.15614   1.07013   0.03162  -0.35645  -0.46148
                          16        17        18        19        20
                           V         V         V         V         V
     Eigenvalues --     0.30110   0.32090   0.41041   0.43266   0.53398
   1 1   C  1S          0.00973   0.01405  -0.01670  -0.05308  -0.05771
   2        2S          0.19940   0.35688   0.03537  -0.69235  -0.44631
   3        2PX         0.62056   0.25532   0.03700  -0.02249   0.34603
   4        2PY        -0.50128   0.01342   0.36852  -0.21646   0.02731
   5        2PZ         0.31351  -0.62961   0.19786   0.04690  -0.25703
   6        3S          1.02242  -0.84318  -0.42813   2.09911   0.77304
   7        3PX         0.12606  -0.73289  -0.11659   0.70448  -0.52186
   8        3PY         0.44519   0.42339  -0.73402  -0.00804  -0.35808
   9        3PZ        -0.45013   2.14529  -0.59014  -0.08374   0.95778
  10        4XX        -0.03575  -0.02007  -0.07209  -0.04766  -0.15950
[...]
  29        4XZ         0.00045  -0.00016  -0.00011   0.00197
  30        4YZ         0.00082   0.00034   0.00065   0.00049   0.00189
  31 3   H  1S         -0.00281   0.00018  -0.00107  -0.01339  -0.00387
  32        2S         -0.00172   0.00106   0.00003  -0.00838  -0.00414
  33 4   H  1S         -0.00018   0.00274   0.00628   0.01547   0.00467
  34        2S          0.00334   0.00376   0.00574   0.00865   0.00625
  35 5   H  1S         -0.00487   0.00419   0.00284  -0.01127  -0.00819
  36        2S         -0.00299   0.00133  -0.00041  -0.00843  -0.00715
  37 6   H  1S          0.01227   0.00370   0.00227   0.00426   0.01774
  38        2S          0.00691   0.00342   0.00400   0.00687   0.00922
                          31        32        33        34        35
  31 3   H  1S          0.19988
  32        2S          0.10008   0.05717
  33 4   H  1S         -0.04804  -0.03977   0.22017
  34        2S         -0.03587  -0.02582   0.11867   0.07886
  35 5   H  1S          0.04848   0.04913  -0.04571  -0.03272   0.16272
  36        2S          0.05936   0.04524  -0.04996  -0.03557   0.08863
  37 6   H  1S         -0.04459  -0.03906   0.03656   0.05921  -0.04761
  38        2S         -0.04232  -0.02984   0.06956   0.06232  -0.04922
                          36        37        38
  36        2S          0.05995
  37 6   H  1S         -0.05491   0.19839
  38        2S         -0.04321   0.09324   0.06877
    Full Mulliken population analysis:
                           1         2         3         4         5
   1 1   C  1S          2.05766
   2        2S         -0.01595   0.34737
   3        2PX         0.00000   0.00000   0.47139
   4        2PY         0.00000   0.00000   0.00000   0.24749
   5        2PZ         0.00000   0.00000   0.00000   0.00000   0.49160
   6        3S         -0.03044   0.23691   0.00000   0.00000   0.00000
   7        3PX         0.00000   0.00000   0.04806   0.00000   0.00000
   8        3PY         0.00000   0.00000   0.00000   0.05943   0.00000
   9        3PZ         0.00000   0.00000   0.00000   0.00000   0.11519
  10        4XX        -0.00117  -0.00602   0.00000   0.00000   0.00000
  11        4YY        -0.00108  -0.01019   0.00000   0.00000   0.00000
  12        4ZZ        -0.00200   0.00729   0.00000   0.00000   0.00000
  13        4XY         0.00000   0.00000   0.00000   0.00000   0.00000
  14        4XZ         0.00000   0.00000   0.00000   0.00000   0.00000
  15        4YZ         0.00000   0.00000   0.00000   0.00000   0.00000
  16 2   N  1S          0.00000  -0.00078  -0.00614  -0.00029  -0.00003
  17        2S         -0.00061   0.00882   0.06869   0.00368   0.00048
  18        2PX        -0.00452   0.05369   0.12647   0.00061   0.00109
  19        2PY        -0.00024   0.00274   0.00277   0.04108  -0.00018
  20        2PZ        -0.00004   0.00055   0.00126  -0.00032   0.00548
  21        3S          0.00226  -0.02963   0.05559   0.00403   0.00025
  22        3PX        -0.00422   0.03263   0.02334  -0.00034   0.00047
  23        3PY        -0.00048   0.00343   0.00048   0.05635  -0.00012
  24        3PZ        -0.00008   0.00072   0.00091  -0.00025  -0.00503
  25        4XX        -0.00086   0.00570   0.00244   0.00059   0.00022
  26        4YY         0.00001  -0.00061  -0.00177   0.00020  -0.00003
  27        4ZZ         0.00001  -0.00100  -0.00293   0.00008   0.00002
  28        4XY        -0.00014   0.00064   0.00147   0.00447   0.00003
  29        4XZ        -0.00001   0.00006   0.00009   0.00002   0.00750
  30        4YZ         0.00000   0.00000   0.00002   0.00005  -0.00013
  31 3   H  1S         -0.00192   0.03399   0.01888  -0.00079   0.06913
  32        2S         -0.00132   0.01769   0.00876  -0.00088   0.02774
  33 4   H  1S         -0.00242   0.03696   0.00063   0.01664   0.09359
  34        2S         -0.00095   0.01436   0.00039   0.00553   0.03502
  35 5   H  1S          0.00000  -0.00016  -0.00067  -0.00001  -0.00023
  36        2S          0.00002  -0.00035  -0.00397  -0.00004  -0.00297
  37 6   H  1S          0.00000  -0.00053  -0.00244   0.00117  -0.00216
  38        2S          0.00031  -0.00321  -0.01186  -0.00090  -0.00900
                           6         7         8         9        10
   6        3S          0.34242
   7        3PX         0.00000   0.02095
   8        3PY         0.00000   0.00000   0.04681
   9        3PZ         0.00000   0.00000   0.00000   0.08974
  10        4XX        -0.01267   0.00000   0.00000   0.00000   0.00314
  11        4YY        -0.00457   0.00000   0.00000   0.00000  -0.00023
  12        4ZZ         0.01435   0.00000   0.00000   0.00000  -0.00086
  13        4XY         0.00000   0.00000   0.00000   0.00000   0.00000
  14        4XZ         0.00000   0.00000   0.00000   0.00000   0.00000
  15        4YZ         0.00000   0.00000   0.00000   0.00000   0.00000
  16 2   N  1S          0.00301  -0.00006  -0.00019  -0.00005  -0.00105
  17        2S         -0.04033   0.00012   0.00211   0.00054   0.00906
  18        2PX         0.00772   0.00532  -0.00104   0.00035   0.00746
  19        2PY         0.00252   0.00013   0.02724  -0.00004   0.00064
  20        2PZ         0.00017   0.00014  -0.00013  -0.00889   0.00013
  21        3S         -0.13137  -0.00255   0.00358   0.00059   0.01021
  22        3PX         0.00117  -0.00250  -0.00105   0.00027   0.00312
  23        3PY         0.00475  -0.00012   0.04713  -0.00005   0.00026
  24        3PZ         0.00031   0.00019  -0.00019  -0.02686   0.00013
  25        4XX         0.00366   0.00028   0.00005   0.00011   0.00001
  26        4YY         0.00094  -0.00037  -0.00017  -0.00006  -0.00010
  27        4ZZ        -0.00046  -0.00131   0.00015  -0.00002  -0.00017
  28        4XY         0.00015   0.00003   0.00141   0.00000   0.00011
  29        4XZ         0.00000   0.00000   0.00000   0.00210  -0.00001
  30        4YZ         0.00000   0.00000   0.00003  -0.00011   0.00000
  31 3   H  1S          0.06605   0.00535  -0.00120   0.04599  -0.00153
  32        2S          0.05071   0.00313  -0.00120   0.02924  -0.00181
  33 4   H  1S          0.04435   0.00029   0.00930   0.05075  -0.00178
  34        2S          0.03275   0.00023   0.00684   0.03523  -0.00336
  35 5   H  1S         -0.00101  -0.00304  -0.00004  -0.00290   0.00002
  36        2S          0.00403  -0.00259  -0.00008  -0.00696  -0.00006
  37 6   H  1S         -0.00137  -0.00568  -0.00019  -0.00727   0.00011
  38        2S          0.00427  -0.00786  -0.00317  -0.01445  -0.00126
                          11        12        13        14        15
  11        4YY         0.00137
  12        4ZZ         0.00027   0.00300
  13        4XY         0.00000   0.00000   0.00248
  14        4XZ         0.00000   0.00000   0.00000   0.00220
  15        4YZ         0.00000   0.00000   0.00000   0.00000   0.00114
  16 2   N  1S          0.00002   0.00001  -0.00012  -0.00001   0.00000
  17        2S         -0.00079  -0.00146   0.00092   0.00009   0.00000
  18        2PX        -0.00238  -0.00262   0.00112   0.00006   0.00001
  19        2PY         0.00025  -0.00008   0.00709   0.00000   0.00004
  20        2PZ        -0.00003   0.00003  -0.00001   0.00784  -0.00003
  21        3S         -0.00077  -0.00506   0.00044   0.00002   0.00000
  22        3PX        -0.00283  -0.00412   0.00007   0.00001   0.00000
  23        3PY        -0.00023  -0.00010   0.00400   0.00000   0.00002
  24        3PZ        -0.00009  -0.00004   0.00000   0.00438  -0.00008
  25        4XX        -0.00013   0.00001   0.00010  -0.00003   0.00000
  26        4YY         0.00000   0.00002   0.00008   0.00001   0.00000
  27        4ZZ         0.00004   0.00011  -0.00001   0.00000   0.00000
  28        4XY         0.00005  -0.00004   0.00044   0.00000   0.00000
  29        4XZ         0.00000   0.00000   0.00000  -0.00025   0.00011
  30        4YZ         0.00000   0.00000   0.00000   0.00014   0.00004
  31 3   H  1S         -0.00050   0.00469   0.00009   0.00162   0.00074
  32        2S         -0.00030   0.00256   0.00002   0.00032   0.00012
  33 4   H  1S          0.00057   0.00520   0.00000  -0.00001   0.00373
  34        2S          0.00145   0.00368   0.00000   0.00001   0.00045
  35 5   H  1S          0.00000   0.00000   0.00000   0.00009   0.00000
  36        2S         -0.00003   0.00011   0.00000   0.00032   0.00000
  37 6   H  1S         -0.00002   0.00005   0.00040   0.00089   0.00010
  38        2S          0.00059   0.00098   0.00017   0.00046   0.00013
                          16        17        18        19        20
  16 2   N  1S          2.06456
  17        2S         -0.02778   0.40648
  18        2PX         0.00000   0.00000   0.56185
  19        2PY         0.00000   0.00000   0.00000   0.49418
  20        2PZ         0.00000   0.00000   0.00000   0.00000   0.55190
  21        3S         -0.03601   0.35560   0.00000   0.00000   0.00000
  22        3PX         0.00000   0.00000   0.11960   0.00000   0.00000
  23        3PY         0.00000   0.00000   0.00000   0.15025   0.00000
  24        3PZ         0.00000   0.00000   0.00000   0.00000   0.17994
  25        4XX        -0.00083   0.00029   0.00000   0.00000   0.00000
  26        4YY        -0.00061  -0.00679   0.00000   0.00000   0.00000
  27        4ZZ        -0.00084  -0.00049   0.00000   0.00000   0.00000
  28        4XY         0.00000   0.00000   0.00000   0.00000   0.00000
  29        4XZ         0.00000   0.00000   0.00000   0.00000   0.00000
  30        4YZ         0.00000   0.00000   0.00000   0.00000   0.00000
  31 3   H  1S          0.00000  -0.00034  -0.00038   0.00002  -0.00035
  32        2S          0.00023  -0.00339  -0.00415   0.00006  -0.00303
  33 4   H  1S          0.00001  -0.00085  -0.00164   0.00034  -0.00161
  34        2S          0.00033  -0.00456  -0.00911  -0.00009  -0.00775
  35 5   H  1S         -0.00052   0.01181   0.02162  -0.00005   0.02796
  36        2S         -0.00030   0.00226   0.00832  -0.00015   0.01724
  37 6   H  1S         -0.00120   0.02068   0.00608   0.03129   0.05031
  38        2S          0.00063  -0.00743   0.00293   0.00595   0.01900
                          21        22        23        24        25
  21        3S          0.57706
  22        3PX         0.00000   0.09739
  23        3PY         0.00000   0.00000   0.17106
  24        3PZ         0.00000   0.00000   0.00000   0.22266
  25        4XX        -0.00198   0.00000   0.00000   0.00000   0.00128
  26        4YY        -0.00829   0.00000   0.00000   0.00000  -0.00029
  27        4ZZ         0.00282   0.00000   0.00000   0.00000  -0.00013
  28        4XY         0.00000   0.00000   0.00000   0.00000   0.00000
  29        4XZ         0.00000   0.00000   0.00000   0.00000   0.00000
  30        4YZ         0.00000   0.00000   0.00000   0.00000   0.00000
  31 3   H  1S         -0.00592  -0.00330   0.00010  -0.00439   0.00031
  32        2S         -0.00804  -0.00751   0.00009  -0.00973   0.00056
  33 4   H  1S         -0.00819  -0.00656   0.00073  -0.01133   0.00006
  34        2S         -0.01149  -0.01460  -0.00031  -0.02115  -0.00082
  35 5   H  1S          0.04746   0.02435   0.00070   0.04886   0.00004
  36        2S          0.02068   0.01022   0.00024   0.03556   0.00067
  37 6   H  1S          0.03268   0.00528   0.03068   0.05547  -0.00147
  38        2S         -0.01612   0.00349   0.00878   0.03595  -0.00222
                          26        27        28        29        30
  26        4YY         0.00182
  27        4ZZ         0.00012   0.00085
  28        4XY         0.00000   0.00000   0.00206
  29        4XZ         0.00000   0.00000   0.00000   0.00197
  30        4YZ         0.00000   0.00000   0.00000   0.00000   0.00189
  31 3   H  1S         -0.00002   0.00000   0.00000   0.00047   0.00000
  32        2S         -0.00020   0.00015   0.00000   0.00051   0.00001
  33 4   H  1S         -0.00001   0.00021   0.00021   0.00161   0.00013
  34        2S          0.00067   0.00087   0.00014   0.00065   0.00012
  35 5   H  1S         -0.00038   0.00085   0.00011   0.00256   0.00032
  36        2S         -0.00089   0.00045  -0.00001   0.00063   0.00009
  37 6   H  1S          0.00368   0.00110   0.00018   0.00034   0.00522
  38        2S          0.00277   0.00137   0.00007   0.00012   0.00060
                          31        32        33        34        35
  31 3   H  1S          0.19988
  32        2S          0.06588   0.05717
  33 4   H  1S         -0.00033  -0.00401   0.22017
  34        2S         -0.00362  -0.00815   0.07812   0.07886
  35 5   H  1S          0.00000   0.00039  -0.00020  -0.00275   0.16272
  36        2S          0.00047   0.00296  -0.00421  -0.01004   0.05835
  37 6   H  1S         -0.00035  -0.00416   0.00003   0.00249  -0.00071
  38        2S         -0.00451  -0.00973   0.00293   0.01147  -0.00676
                          36        37        38
  36        2S          0.05995
  37 6   H  1S         -0.00754   0.19839
  38        2S         -0.01649   0.06138   0.06877
     Gross orbital populations:
                           1
   1 1   C  1S          1.99183
   2        2S          0.73512
   3        2PX         0.80185
   4        2PY         0.43760
   5        2PZ         0.82793
   6        3S          0.59804
   7        3PX         0.05814
   8        3PY         0.19542
   9        3PZ         0.30246
  10        4XX         0.00230
  11        4YY        -0.01955
  12        4ZZ         0.02599
  13        4XY         0.01728
  14        4XZ         0.01816
  15        4YZ         0.00653
  16 2   N  1S          1.99199
  17        2S          0.79683
  18        2PX         0.89848
  19        2PY         0.76577
  20        2PZ         0.83975
  21        3S          0.84785
  22        3PX         0.27436
  23        3PY         0.47767
  24        3PZ         0.50587
  25        4XX         0.00759
  26        4YY        -0.01030
  27        4ZZ         0.00184
  28        4XY         0.01138
  29        4XZ         0.01846
  30        4YZ         0.00844
  31 3   H  1S          0.48422
  32        2S          0.20066
  33 4   H  1S          0.52342
  34        2S          0.21089
  35 5   H  1S          0.38877
  36        2S          0.16588
  37 6   H  1S          0.47290
  38        2S          0.11818
          Condensed to atoms (all electrons):
               1          2          3          4          5          6
     1  C    4.921416   0.395124   0.375385   0.389436  -0.020531  -0.061733
     2  N    0.395124   6.606158  -0.048253  -0.093991   0.280714   0.296230
     3  H    0.375385  -0.048253   0.388807  -0.016112   0.003814  -0.018754
     4  H    0.389436  -0.093991  -0.016112   0.455271  -0.017205   0.016916
     5  H   -0.020531   0.280714   0.003814  -0.017205   0.339356  -0.031501
     6  H   -0.061733   0.296230  -0.018754   0.016916  -0.031501   0.389916
 Mulliken charges:
               1
     1  C    0.000904
     2  N   -0.435981
     3  H    0.315114
     4  H    0.265685
     5  H    0.445353
     6  H    0.408926
 Sum of Mulliken charges =   1.00000
 Mulliken charges with hydrogens summed into heavy atoms:
               1
     1  C    0.581702
     2  N    0.418298
 Electronic spatial extent (au):  <R**2>=            245.4763
 Charge=              1.0000 electrons
 Dipole moment (field-independent basis, Debye):
    X=             -7.4367    Y=              2.3151    Z=              0.4411  Tot=              7.8012
 Quadrupole moment (field-independent basis, Debye-Ang):
   XX=              4.3092   YY=             -9.8414   ZZ=             -7.7367
   XY=             -2.5426   XZ=             -3.0813   YZ=              1.2012
 Traceless Quadrupole moment (field-independent basis, Debye-Ang):
   XX=              8.7321   YY=             -5.4184   ZZ=             -3.3137
   XY=             -2.5426   XZ=             -3.0813   YZ=              1.2012
 Octapole moment (field-independent basis, Debye-Ang**2):
  XXX=             25.7396  YYY=             -8.4275  ZZZ=             -3.0253  XYY=             18.6341
  XXY=              0.4846  XXZ=              7.0177  XZZ=             14.1159  YZZ=             -1.9315
  YYZ=             -0.3457  XYZ=             -2.0092
 Hexadecapole moment (field-independent basis, Debye-Ang**3):
 XXXX=           -179.8831 YYYY=            -16.0174 ZZZZ=            -16.4192 XXXY=             11.1900
 XXXZ=            -15.4075 YYYX=             16.0281 YYYZ=             -0.9346 ZZZX=              3.9348
 ZZZY=             -1.0215 XXYY=            -43.9406 XXZZ=            -32.1889 YYZZ=             -5.1329
 XXYZ=              2.1441 YYXZ=              1.8320 ZZXY=              5.0127
 N-N= 4.068026905937D+01 E-N=-2.966636163656D+02  KE= 9.439964165810D+01
 Orbital energies and kinetic energies (alpha):
                                 1                 2
   1         O               -14.698173         21.953969
   2         O               -10.534261         15.870900
   3         O                -1.315913          2.128065
   4         O                -0.928401          1.588550
   5         O                -0.869394          1.246134
   6         O                -0.750441          1.421543
   7         O                -0.711165          1.563939
   8         O                -0.610223          1.426719
   9         V                -0.339614          1.551704
  10         V                -0.234911          1.343362
  11         V                -0.182191          1.110833
  12         V                -0.110826          1.128317
  13         V                -0.060187          0.987037
  14         V                 0.057169          1.139825
  15         V                 0.253900          1.792915
  16         V                 0.301098          1.918351
  17         V                 0.320898          1.711722
  18         V                 0.410408          2.370699
  19         V                 0.432658          1.898636
  20         V                 0.533978          2.440088
  21         V                 0.559008          2.540699
  22         V                 0.576875          2.526097
  23         V                 0.611656          2.674465
  24         V                 0.669378          2.351892
  25         V                 0.761734          3.083689
  26         V                 0.996824          2.461308
  27         V                 1.179731          2.879007
  28         V                 1.312481          2.930098
  29         V                 1.366582          2.900781
  30         V                 1.678864          3.321940
  31         V                 1.820557          3.473965
  32         V                 2.010212          3.726553
  33         V                 2.091575          3.909242
  34         V                 2.228164          3.903540
  35         V                 2.270697          3.983554
  36         V                 2.575541          5.641809
  37         V                 3.450523          9.942891
  38         V                 3.807724         10.028947
 Total kinetic energy from orbitals= 9.439964165810D+01

 Test job not archived.
 1\1\GINC-EAM\SP\RB3LYP TD-FC\Gen\C1H4N1(1+)\DULIKAI\30-Apr-2014\0\\# t
 d(singlet, root=0, nstates=2) b3lyp/ChkBasis scf=(tight,maxcycle=10000
 ) iop(9/40=20) nosymm pop=full geom=AllCheck Guess=Read\\[0] [0]\\1,1\
 C,-2.3927183,0.3813235,0.1093563\N,-1.2443361,0.2083512,0.1592733\H,-2
 .8408849,0.1617052,1.1173091\H,-2.4081357,-0.1013021,-0.8189348\H,-0.3
 669429,0.3596091,-0.7031469\H,-1.0449305,0.9447395,0.8916351\\Version=
 EM64L-G09RevD.01\HF=-94.8009034\RMSD=1.048e-09\PG=C01 [X(C1H4N1)]\\@


 IN NATURE THERE ARE NEITHER REWARDS OR
 PUNISHMENTS -- THERE ARE CONSEQUENCES.

                            -- ROBERT GREEN INGERSOLL
 Job cpu time:       0 days  0 hours  0 minutes  6.9 seconds.
 File lengths (MBytes):  RWF=      5 Int=      0 D2E=      0 Chk=      1 Scr=      1
 Normal termination of Gaussian 09 at Wed Apr 30 17:11:52 2014.
