 Entering Gaussian System, Link 0=g09
 Input=base.gjf
 Output=base.log
 Initial command:
 /opt/Gaussian/g09/l1.exe /tmp/dulikai/Gau-4259.inp -scrdir=/tmp/dulikai/
 Entering Link 1 = /opt/Gaussian/g09/l1.exe PID=      4261.
  
 Copyright (c) 1988,1990,1992,1993,1995,1998,2003,2009,2010,
            Gaussian, Inc.  All Rights Reserved.
  
 This is part of the Gaussian(R) 09 program.  It is based on
 the Gaussian(R) 03 system (copyright 2003, Gaussian, Inc.),
 the Gaussian(R) 98 system (copyright 1998, Gaussian, Inc.),
 the Gaussian(R) 94 system (copyright 1995, Gaussian, Inc.),
 the Gaussian 92(TM) system (copyright 1992, Gaussian, Inc.),
 the Gaussian 90(TM) system (copyright 1990, Gaussian, Inc.),
 the Gaussian 88(TM) system (copyright 1988, Gaussian, Inc.),
 the Gaussian 86(TM) system (copyright 1986, Carnegie Mellon
 University), and the Gaussian 82(TM) system (copyright 1983,
 Carnegie Mellon University). Gaussian is a federally registered
 trademark of Gaussian, Inc.
  
 This software contains proprietary and confidential information,
 including trade secrets, belonging to Gaussian, Inc.
  
 This software is provided under written license and may be
 used, copied, transmitted, or stored only in accord with that
 written license.
  
 The following legend is applicable only to US Government
 contracts under FAR:
  
                    RESTRICTED RIGHTS LEGEND
  
 Use, reproduction and disclosure by the US Government is
 subject to restrictions as set forth in subparagraphs (a)
 and (c) of the Commercial Computer Software - Restricted
 Rights clause in FAR 52.227-19.
  
 Gaussian, Inc.
 340 Quinnipiac St., Bldg. 40, Wallingford CT 06492
  
  
 ---------------------------------------------------------------
 Warning -- This program may not be used in any manner that
 competes with the business of Gaussian, Inc. or will provide
 assistance to any competitor of Gaussian, Inc.  The licensee
 of this program is prohibited from giving any competitor of
 Gaussian, Inc. access to this program.  By using this program,
 the user acknowledges that Gaussian, Inc. is engaged in the
 business of creating and licensing software in the field of
 computational chemistry and represents and warrants to the
 licensee that it is not a competitor of Gaussian, Inc. and that
 it will not use this program in any manner prohibited above.
 ---------------------------------------------------------------
  

 Cite this work as:
 Gaussian 09, Revision B.01,
 M. J. Frisch, G. W. Trucks, H. B. Schlegel, G. E. Scuseria, 
 M. A. Robb, J. R. Cheeseman, G. Scalmani, V. Barone, B. Mennucci, 
 G. A. Petersson, H. Nakatsuji, M. Caricato, X. Li, H. P. Hratchian, 
 A. F. Izmaylov, J. Bloino, G. Zheng, J. L. Sonnenberg, M. Hada, 
 M. Ehara, K. Toyota, R. Fukuda, J. Hasegawa, M. Ishida, T. Nakajima, 
 Y. Honda, O. Kitao, H. Nakai, T. Vreven, J. A. Montgomery, Jr., 
 J. E. Peralta, F. Ogliaro, M. Bearpark, J. J. Heyd, E. Brothers, 
 K. N. Kudin, V. N. Staroverov, T. Keith, R. Kobayashi, J. Normand, 
 K. Raghavachari, A. Rendell, J. C. Burant, S. S. Iyengar, J. Tomasi, 
 M. Cossi, N. Rega, J. M. Millam, M. Klene, J. E. Knox, J. B. Cross, 
 V. Bakken, C. Adamo, J. Jaramillo, R. Gomperts, R. E. Stratmann, 
 O. Yazyev, A. J. Austin, R. Cammi, C. Pomelli, J. W. Ochterski, 
 R. L. Martin, K. Morokuma, V. G. Zakrzewski, G. A. Voth, 
 P. Salvador, J. J. Dannenberg, S. Dapprich, A. D. Daniels, 
 O. Farkas, J. B. Foresman, J. V. Ortiz, J. Cioslowski, 
 and D. J. Fox, Gaussian, Inc., Wallingford CT, 2010.
 
 ******************************************
 Gaussian 09:  AM64L-G09RevB.01 12-Aug-2010
                16-Dec-2013 
 ******************************************
 %chk=base.chk
 %nproc=8
 Will use up to    8 processors via shared memory.
 %mem=8GB
 --------------------------------
 # opt(maxcyc=1000) b3lyp/6-31G**
 --------------------------------
 1/6=1000,14=-1,18=20,19=15,26=3,38=1/1,3;
 2/9=110,12=2,17=6,18=5,40=1/2;
 3/5=1,6=6,7=101,11=2,16=1,25=1,30=1,71=1,74=-5/1,2,3;
 4//1;
 5/5=2,38=5/2;
 6/7=2,8=2,9=2,10=2,28=1/1;
 7//1,2,3,16;
 1/6=1000,14=-1,18=20,19=15/3(2);
 2/9=110/2;
 99//99;
 2/9=110/2;
 3/5=1,6=6,7=101,11=2,16=1,25=1,30=1,71=1,74=-5/1,2,3;
 4/5=5,16=3/1;
 5/5=2,38=5/2;
 7//1,2,3,16;
 1/6=1000,14=-1,18=20,19=15/3(-5);
 2/9=110/2;
 6/7=2,8=2,9=2,10=2,19=2,28=1/1;
 99/9=1/99;
 -------------------
 Title Card Required
 -------------------
 Symbolic Z-matrix:
 Charge =  0 Multiplicity = 1
 N                     12.1818   8.58845  -10.38922 
 C                     11.63822   8.04758  -11.48175 
 H                     12.05654   8.25041  -12.44547 
 C                     10.5541   7.24008  -11.3674 
 H                     10.11952   6.80727  -12.24416 
 C                     9.99741   6.9677   -10.10565 
 N                     8.96357   6.19548  -10.01483 
 H                     8.5637    5.99851  -9.11967 
 H                     8.56423   5.79549  -10.83978 
 N                     10.52761   7.50052  -8.99552 
 C                     11.59558   8.29965  -9.0773 
 O                     12.09409   8.80033  -8.03596 
 H                     12.98099   9.18473  -10.46505 
 N                     7.41579   5.93987  -2.18699 
 C                     6.3745    5.1539   -2.55378 
 H                     5.66816   4.7257   -1.87362 
 N                     6.34905   4.98885  -3.85363 
 C                     7.50072   5.75967  -4.3195 
 C                     7.97664   5.9551   -5.6017 
 O                     7.42066   5.44385  -6.60823 
 N                     9.17374   6.79842  -5.7133 
 H                     9.57837   6.98663  -6.60821 
 C                     9.72375   7.31872  -4.58883 
 N                     10.81421   8.08764  -4.68417 
 H                     11.21737   8.27469  -5.57998 
 H                     11.22624   8.4754   -3.85962 
 N                     9.18532   7.07166  -3.36807 
 C                     8.09381   6.30166  -3.27569 
 H                     7.63958   6.20581  -1.24933 
 

 GradGradGradGradGradGradGradGradGradGradGradGradGradGradGradGradGradGrad
 Berny optimization.
 Initialization pass.
                           ----------------------------
                           !    Initial Parameters    !
                           ! (Angstroms and Degrees)  !
 --------------------------                            --------------------------
 ! Name  Definition              Value          Derivative Info.                !
 --------------------------------------------------------------------------------
 ! R1    R(1,2)                  1.3348         estimate D2E/DX2                !
 ! R2    R(1,11)                 1.4657         estimate D2E/DX2                !
 ! R3    R(1,13)                 1.0            estimate D2E/DX2                !
 ! R4    R(2,3)                  1.07           estimate D2E/DX2                !
 ! R5    R(2,4)                  1.3566         estimate D2E/DX2                !
 ! R6    R(4,5)                  1.07           estimate D2E/DX2                !
 ! R7    R(4,6)                  1.4057         estimate D2E/DX2                !
 ! R8    R(6,7)                  1.2936         estimate D2E/DX2                !
 ! R9    R(6,10)                 1.3407         estimate D2E/DX2                !
 ! R10   R(7,8)                  1.0            estimate D2E/DX2                !
 ! R11   R(7,9)                  1.0            estimate D2E/DX2                !
 ! R12   R(8,20)                 2.8145         estimate D2E/DX2                !
 ! R13   R(10,11)                1.3364         estimate D2E/DX2                !
 ! R14   R(10,22)                2.62           estimate D2E/DX2                !
 ! R15   R(11,12)                1.2584         estimate D2E/DX2                !
 ! R16   R(12,25)                2.6602         estimate D2E/DX2                !
 ! R17   R(14,15)                1.3552         estimate D2E/DX2                !
 ! R18   R(14,28)                1.3326         estimate D2E/DX2                !
 ! R19   R(14,29)                1.0            estimate D2E/DX2                !
 ! R20   R(15,16)                1.07           estimate D2E/DX2                !
 ! R21   R(15,17)                1.3105         estimate D2E/DX2                !
 ! R22   R(17,18)                1.462          estimate D2E/DX2                !
 ! R23   R(18,19)                1.3816         estimate D2E/DX2                !
 ! R24   R(18,28)                1.3172         estimate D2E/DX2                !
 ! R25   R(19,20)                1.2584         estimate D2E/DX2                !
 ! R26   R(19,21)                1.4686         estimate D2E/DX2                !
 ! R27   R(21,22)                1.0            estimate D2E/DX2                !
 ! R28   R(21,23)                1.3556         estimate D2E/DX2                !
 ! R29   R(23,24)                1.3377         estimate D2E/DX2                !
 ! R30   R(23,27)                1.3569         estimate D2E/DX2                !
 ! R31   R(24,25)                1.0            estimate D2E/DX2                !
 ! R32   R(24,26)                1.0            estimate D2E/DX2                !
 ! R33   R(27,28)                1.339          estimate D2E/DX2                !
 ! A1    A(2,1,11)             119.335          estimate D2E/DX2                !
 ! A2    A(2,1,13)             120.3325         estimate D2E/DX2                !
 ! A3    A(11,1,13)            120.3325         estimate D2E/DX2                !
 ! A4    A(1,2,3)              120.0781         estimate D2E/DX2                !
 ! A5    A(1,2,4)              119.8439         estimate D2E/DX2                !
 ! A6    A(3,2,4)              120.078          estimate D2E/DX2                !
 ! A7    A(2,4,5)              119.7528         estimate D2E/DX2                !
 ! A8    A(2,4,6)              120.4945         estimate D2E/DX2                !
 ! A9    A(5,4,6)              119.7528         estimate D2E/DX2                !
 ! A10   A(4,6,7)              119.6813         estimate D2E/DX2                !
 ! A11   A(4,6,10)             120.6374         estimate D2E/DX2                !
 ! A12   A(7,6,10)             119.6813         estimate D2E/DX2                !
 ! A13   A(6,7,8)              120.0            estimate D2E/DX2                !
 ! A14   A(6,7,9)              120.0            estimate D2E/DX2                !
 ! A15   A(8,7,9)              120.0            estimate D2E/DX2                !
 ! A16   A(6,10,11)            120.201          estimate D2E/DX2                !
 ! A17   A(6,10,22)            122.2264         estimate D2E/DX2                !
 ! A18   A(11,10,22)           117.5544         estimate D2E/DX2                !
 ! A19   A(1,11,10)            119.4882         estimate D2E/DX2                !
 ! A20   A(1,11,12)            120.2559         estimate D2E/DX2                !
 ! A21   A(10,11,12)           120.2559         estimate D2E/DX2                !
 ! A22   A(11,12,25)           123.6974         estimate D2E/DX2                !
 ! A23   A(15,14,28)           109.103          estimate D2E/DX2                !
 ! A24   A(15,14,29)           125.4485         estimate D2E/DX2                !
 ! A25   A(28,14,29)           125.4485         estimate D2E/DX2                !
 ! A26   A(14,15,16)           124.56           estimate D2E/DX2                !
 ! A27   A(14,15,17)           110.8799         estimate D2E/DX2                !
 ! A28   A(16,15,17)           124.56           estimate D2E/DX2                !
 ! A29   A(15,17,18)           103.5535         estimate D2E/DX2                !
 ! A30   A(17,18,19)           129.9152         estimate D2E/DX2                !
 ! A31   A(17,18,28)           108.6091         estimate D2E/DX2                !
 ! A32   A(19,18,28)           121.4757         estimate D2E/DX2                !
 ! A33   A(18,19,20)           122.1851         estimate D2E/DX2                !
 ! A34   A(18,19,21)           115.6297         estimate D2E/DX2                !
 ! A35   A(20,19,21)           122.1851         estimate D2E/DX2                !
 ! A36   A(8,20,19)            117.0149         estimate D2E/DX2                !
 ! A37   A(19,21,22)           120.3922         estimate D2E/DX2                !
 ! A38   A(19,21,23)           119.2155         estimate D2E/DX2                !
 ! A39   A(22,21,23)           120.3923         estimate D2E/DX2                !
 ! A40   A(21,23,24)           119.4881         estimate D2E/DX2                !
 ! A41   A(21,23,27)           121.0239         estimate D2E/DX2                !
 ! A42   A(24,23,27)           119.488          estimate D2E/DX2                !
 ! A43   A(23,24,25)           120.0            estimate D2E/DX2                !
 ! A44   A(23,24,26)           120.0            estimate D2E/DX2                !
 ! A45   A(25,24,26)           120.0            estimate D2E/DX2                !
 ! A46   A(23,27,28)           119.357          estimate D2E/DX2                !
 ! A47   A(14,28,18)           107.8544         estimate D2E/DX2                !
 ! A48   A(14,28,27)           128.8473         estimate D2E/DX2                !
 ! A49   A(18,28,27)           123.2982         estimate D2E/DX2                !
 ! A50   L(7,8,20,6,-1)        180.3217         estimate D2E/DX2                !
 ! A51   L(10,22,21,19,-1)     178.0886         estimate D2E/DX2                !
 ! A52   L(12,25,24,23,-1)     176.5537         estimate D2E/DX2                !
 ! A53   L(7,8,20,6,-2)        179.5953         estimate D2E/DX2                !
 ! A54   L(10,22,21,19,-2)     183.0249         estimate D2E/DX2                !
 ! A55   L(12,25,24,23,-2)     184.9774         estimate D2E/DX2                !
 ! D1    D(11,1,2,3)           180.0            estimate D2E/DX2                !
 ! D2    D(11,1,2,4)             0.0            estimate D2E/DX2                !
 ! D3    D(13,1,2,3)            -0.0001         estimate D2E/DX2                !
 ! D4    D(13,1,2,4)           179.9999         estimate D2E/DX2                !
 ! D5    D(2,1,11,10)            0.0            estimate D2E/DX2                !
 ! D6    D(2,1,11,12)          179.9999         estimate D2E/DX2                !
 ! D7    D(13,1,11,10)        -179.9999         estimate D2E/DX2                !
 ! D8    D(13,1,11,12)           0.0            estimate D2E/DX2                !
 ! D9    D(1,2,4,5)            179.9999         estimate D2E/DX2                !
 ! D10   D(1,2,4,6)             -0.0001         estimate D2E/DX2                !
 ! D11   D(3,2,4,5)             -0.0001         estimate D2E/DX2                !
 ! D12   D(3,2,4,6)            180.0            estimate D2E/DX2                !
 ! D13   D(2,4,6,7)           -179.9998         estimate D2E/DX2                !
 ! D14   D(2,4,6,10)             0.0001         estimate D2E/DX2                !
 ! D15   D(5,4,6,7)              0.0002         estimate D2E/DX2                !
 ! D16   D(5,4,6,10)          -179.9998         estimate D2E/DX2                !
 ! D17   D(4,6,7,8)           -180.0            estimate D2E/DX2                !
 ! D18   D(4,6,7,9)             -0.0001         estimate D2E/DX2                !
 ! D19   D(10,6,7,8)             0.0001         estimate D2E/DX2                !
 ! D20   D(10,6,7,9)          -180.0            estimate D2E/DX2                !
 ! D21   D(4,6,10,11)           -0.0001         estimate D2E/DX2                !
 ! D22   D(4,6,10,22)         -178.413          estimate D2E/DX2                !
 ! D23   D(7,6,10,11)          179.9998         estimate D2E/DX2                !
 ! D24   D(7,6,10,22)            1.5869         estimate D2E/DX2                !
 ! D25   D(6,7,20,19)           -1.3535         estimate D2E/DX2                !
 ! D26   D(9,7,20,19)          178.839          estimate D2E/DX2                !
 ! D27   D(6,10,11,1)            0.0001         estimate D2E/DX2                !
 ! D28   D(6,10,11,12)        -179.9998         estimate D2E/DX2                !
 ! D29   D(22,10,11,1)         178.4857         estimate D2E/DX2                !
 ! D30   D(22,10,11,12)         -1.5142         estimate D2E/DX2                !
 ! D31   D(6,10,21,19)          -2.7315         estimate D2E/DX2                !
 ! D32   D(6,10,21,23)         178.8475         estimate D2E/DX2                !
 ! D33   D(11,10,21,19)        178.2084         estimate D2E/DX2                !
 ! D34   D(11,10,21,23)         -0.2126         estimate D2E/DX2                !
 ! D35   D(1,11,12,25)        -176.8727         estimate D2E/DX2                !
 ! D36   D(10,11,12,25)          3.1273         estimate D2E/DX2                !
 ! D37   D(11,12,24,23)         -3.7807         estimate D2E/DX2                !
 ! D38   D(11,12,24,26)        178.8072         estimate D2E/DX2                !
 ! D39   D(28,14,15,16)        179.9998         estimate D2E/DX2                !
 ! D40   D(28,14,15,17)          0.0            estimate D2E/DX2                !
 ! D41   D(29,14,15,16)          0.0            estimate D2E/DX2                !
 ! D42   D(29,14,15,17)       -179.9998         estimate D2E/DX2                !
 ! D43   D(15,14,28,18)          0.0            estimate D2E/DX2                !
 ! D44   D(15,14,28,27)       -179.9998         estimate D2E/DX2                !
 ! D45   D(29,14,28,18)        179.9998         estimate D2E/DX2                !
 ! D46   D(29,14,28,27)          0.0            estimate D2E/DX2                !
 ! D47   D(14,15,17,18)          0.0            estimate D2E/DX2                !
 ! D48   D(16,15,17,18)       -179.9998         estimate D2E/DX2                !
 ! D49   D(15,17,18,19)        179.9998         estimate D2E/DX2                !
 ! D50   D(15,17,18,28)          0.0            estimate D2E/DX2                !
 ! D51   D(17,18,19,20)          0.0001         estimate D2E/DX2                !
 ! D52   D(17,18,19,21)       -179.9998         estimate D2E/DX2                !
 ! D53   D(28,18,19,20)        179.9998         estimate D2E/DX2                !
 ! D54   D(28,18,19,21)          0.0            estimate D2E/DX2                !
 ! D55   D(17,18,28,14)          0.0            estimate D2E/DX2                !
 ! D56   D(17,18,28,27)        179.9998         estimate D2E/DX2                !
 ! D57   D(19,18,28,14)       -179.9998         estimate D2E/DX2                !
 ! D58   D(19,18,28,27)          0.0            estimate D2E/DX2                !
 ! D59   D(18,19,20,8)         179.6089         estimate D2E/DX2                !
 ! D60   D(21,19,20,8)          -0.3912         estimate D2E/DX2                !
 ! D61   D(18,19,21,22)       -180.0            estimate D2E/DX2                !
 ! D62   D(18,19,21,23)          0.0            estimate D2E/DX2                !
 ! D63   D(20,19,21,22)          0.0002         estimate D2E/DX2                !
 ! D64   D(20,19,21,23)       -179.9998         estimate D2E/DX2                !
 ! D65   D(19,21,23,24)        179.9999         estimate D2E/DX2                !
 ! D66   D(19,21,23,27)          0.0            estimate D2E/DX2                !
 ! D67   D(22,21,23,24)         -0.0001         estimate D2E/DX2                !
 ! D68   D(22,21,23,27)       -180.0            estimate D2E/DX2                !
 ! D69   D(21,23,24,25)          0.0            estimate D2E/DX2                !
 ! D70   D(21,23,24,26)       -179.9999         estimate D2E/DX2                !
 ! D71   D(27,23,24,25)        179.9999         estimate D2E/DX2                !
 ! D72   D(27,23,24,26)          0.0            estimate D2E/DX2                !
 ! D73   D(21,23,27,28)         -0.0001         estimate D2E/DX2                !
 ! D74   D(24,23,27,28)       -180.0            estimate D2E/DX2                !
 ! D75   D(23,27,28,14)        179.9998         estimate D2E/DX2                !
 ! D76   D(23,27,28,18)          0.0            estimate D2E/DX2                !
 --------------------------------------------------------------------------------
 Trust Radius=3.00D-01 FncErr=1.00D-07 GrdErr=1.00D-06
 Number of steps in this run=    174 maximum allowed number of steps=    174.
 GradGradGradGradGradGradGradGradGradGradGradGradGradGradGradGradGradGrad

                          Input orientation:                          
 ---------------------------------------------------------------------
 Center     Atomic      Atomic             Coordinates (Angstroms)
 Number     Number       Type             X           Y           Z
 ---------------------------------------------------------------------
      1          7           0       12.181800    8.588455  -10.389222
      2          6           0       11.638217    8.047580  -11.481752
      3          1           0       12.056542    8.250415  -12.445475
      4          6           0       10.554097    7.240075  -11.367396
      5          1           0       10.119516    6.807269  -12.244161
      6          6           0        9.997408    6.967698  -10.105652
      7          7           0        8.963565    6.195479  -10.014833
      8          1           0        8.563697    5.998514   -9.119674
      9          1           0        8.564235    5.795493  -10.839785
     10          7           0       10.527609    7.500521   -8.995522
     11          6           0       11.595583    8.299652   -9.077302
     12          8           0       12.094086    8.800330   -8.035963
     13          1           0       12.980990    9.184731  -10.465053
     14          7           0        7.415792    5.939873   -2.186986
     15          6           0        6.374498    5.153899   -2.553783
     16          1           0        5.668157    4.725696   -1.873618
     17          7           0        6.349051    4.988852   -3.853630
     18          6           0        7.500716    5.759672   -4.319497
     19          6           0        7.976637    5.955096   -5.601704
     20          8           0        7.420662    5.443850   -6.608228
     21          7           0        9.173743    6.798424   -5.713305
     22          1           0        9.578373    6.986633   -6.608208
     23          6           0        9.723748    7.318723   -4.588831
     24          7           0       10.814214    8.087641   -4.684166
     25          1           0       11.217366    8.274687   -5.579980
     26          1           0       11.226244    8.475398   -3.859620
     27          7           0        9.185323    7.071665   -3.368074
     28          6           0        8.093807    6.301663   -3.275689
     29          1           0        7.639581    6.205814   -1.249332
 ---------------------------------------------------------------------
                    Distance matrix (angstroms):
                    1          2          3          4          5
     1  N    0.000000
     2  C    1.334784   0.000000
     3  H    2.087615   1.070000   0.000000
     4  C    2.329027   1.356635   2.107221   0.000000
     5  H    3.296428   2.103828   2.423895   1.070000   0.000000
     6  C    2.734745   2.398343   3.370484   1.405734   2.147992
     7  N    4.027845   3.568738   4.438162   2.334609   2.584650
     8  H    4.627118   4.385289   5.322779   3.248911   3.582887
     9  H    4.592431   3.864374   4.560821   2.514904   2.326986
    10  N    2.421228   2.777419   3.847356   2.386277   3.346759
    11  C    1.465671   2.418003   3.399926   2.729822   3.799339
    12  O    2.364405   3.556390   4.443828   3.988033   5.057683
    13  H    1.000000   2.032197   2.376893   3.238165   4.123783
    14  N    9.849188  10.424201  11.493988   9.788739  10.450324
    15  C   10.339973  10.760519  11.820305   9.975017  10.519612
    16  H   11.395788  11.789520  12.845204  10.969336  11.475876
    17  N    9.470589   9.773399  10.818181   8.899837   9.376783
    18  C    8.170442   8.582035   9.643177   7.822250   8.411651
    19  C    6.894803   7.236064   8.291641   6.444973   7.031384
    20  O    6.844917   6.951145   7.965026   5.974489   6.395817
    21  N    5.840960   6.396014   7.465984   5.836881   6.598989
    22  H    4.862071   5.396294   6.466231   4.864785   5.664713
    23  C    6.426413   7.190882   8.248445   6.829686   7.682598
    24  N    5.888019   6.847463   7.861793   6.741779   7.699058
    25  H    4.915017   5.921115   6.916634   5.916463   6.911578
    26  H    6.600119   7.645236   8.628842   7.638357   8.620211
    27  N    7.783062   8.532343   9.593360   8.117331   8.929029
    28  C    8.517245   9.107718  10.177714   8.509369   9.208291
    29  H   10.480759  11.139282  12.208339  10.580137  11.287076
                    6          7          8          9         10
     6  C    0.000000
     7  N    1.293600   0.000000
     8  H    1.991733   1.000000   0.000000
     9  H    1.991733   1.000000   1.732051   0.000000
    10  N    1.340672   2.277797   2.475559   3.187987   0.000000
    11  C    2.320726   3.497717   3.806490   4.308855   1.336363
    12  O    3.469613   4.527840   4.635543   5.417593   2.250357
    13  H    3.734456   5.027725   5.610214   5.579882   3.318909
    14  N    8.392047   7.983491   7.027324   8.729874   7.646908
    15  C    8.570069   7.965891   6.972581   8.594441   8.015671
    16  H    9.567413   8.905019   7.906298   9.482821   9.057343
    17  N    7.504274   6.800886   5.801318   7.373199   7.085752
    18  C    6.416571   5.896329   4.922262   6.606550   5.835910
    19  C    5.039289   4.528522   3.566880   5.273351   4.518163
    20  O    4.603663   3.814506   2.814523   4.397441   4.425177
    21  N    4.472113   4.348662   3.551811   5.259103   3.619233
    22  H    3.522508   3.550916   2.883298   4.511489   2.620000
    23  C    5.534748   5.592947   4.859754   6.537517   4.483099
    24  N    5.595888   5.951570   5.394721   6.943198   4.360579
    25  H    4.866028   5.391720   4.975175   6.391484   3.569458
    26  H    6.541874   6.942938   6.394707   7.936680   5.274085
    27  N    6.787139   6.707927   5.883789   7.605316   5.801192
    28  C    7.121496   6.795867   5.870677   7.595594   6.330651
    29  H    9.196424   8.864933   7.927120   9.643657   8.367821
                   11         12         13         14         15
    11  C    0.000000
    12  O    1.258400   0.000000
    13  H    2.151411   2.614353   0.000000
    14  N    8.397361   8.017430  10.489372   0.000000
    15  C    8.928146   8.721494  11.067138   1.355209   0.000000
    16  H    9.990026   9.791308  12.131500   2.150966   1.070000
    17  N    8.110132   8.063790  10.261527   2.195469   1.310531
    18  C    6.771716   6.645056   8.918088   2.141796   2.180155
    19  C    5.538366   5.565462   7.689360   3.460503   3.535335
    20  O    5.628668   5.928346   7.732176   4.448982   4.197268
    21  N    4.408568   4.234475   6.539778   4.032670   4.530212
    22  H    3.448127   3.414205   5.593272   5.031865   5.482891
    23  C    4.961085   4.438061   6.972920   3.605100   4.477204
    24  N    4.467116   3.657943   6.270341   4.732662   5.732055
    25  H    3.517803   2.660224   5.272807   5.604974   6.507731
    26  H    5.233689   4.277917   6.871247   4.873001   6.023040
    27  N    6.317642   5.765274   8.321013   2.409805   3.498805
    28  C    7.064921   6.701178   9.158799   1.332618   2.189643
    29  H    9.017273   8.522470  11.060475   1.000000   2.099656
                   16         17         18         19         20
    16  H    0.000000
    17  N    2.110289   0.000000
    18  C    3.226408   1.462029   0.000000
    19  C    4.554024   2.576514   1.381574   0.000000
    20  O    5.099368   2.990515   2.311804   1.258400   0.000000
    21  N    5.597190   3.835600   2.412618   1.468578   2.389362
    22  H    6.543545   4.691199   3.325701   2.154687   2.652526
    23  C    5.526662   4.166221   2.728562   2.436758   3.591284
    24  N    6.758977   5.498179   4.065918   3.666261   4.712520
    25  H    7.558187   6.121886   4.661288   3.985386   4.846225
    26  H    6.992625   5.995253   4.633165   4.466176   5.588165
    27  N    4.484131   3.552227   2.337613   2.774303   4.032668
    28  C    3.214538   2.258686   1.317211   2.354609   3.506391
    29  H    2.543029   3.151005   3.105517   4.372597   5.417220
                   21         22         23         24         25
    21  N    0.000000
    22  H    1.000000   0.000000
    23  C    1.355603   2.051659   0.000000
    24  N    2.326446   2.538003   1.337700   0.000000
    25  H    2.524584   2.324357   2.031537   1.000000   0.000000
    26  H    3.234370   3.533644   2.031537   1.000000   1.732051
    27  N    2.361124   3.264995   1.356903   2.327572   3.235582
    28  C    2.712011   3.711981   2.327114   3.546004   4.354217
    29  H    4.757298   5.752055   4.090790   5.041592   5.986258
                   26         27         28         29
    26  H    0.000000
    27  N    2.525360   0.000000
    28  C    3.857236   1.338972   0.000000
    29  H    4.982847   2.761898   2.078853   0.000000
 Stoichiometry    C9H10N8O2
 Framework group  C1[X(C9H10N8O2)]
 Deg. of freedom    81
 Full point group                 C1      NOp   1
 Largest Abelian subgroup         C1      NOp   1
 Largest concise Abelian subgroup C1      NOp   1
                         Standard orientation:                         
 ---------------------------------------------------------------------
 Center     Atomic      Atomic             Coordinates (Angstroms)
 Number     Number       Type             X           Y           Z
 ---------------------------------------------------------------------
      1          7           0        4.845216    0.939233   -0.026124
      2          6           0        5.410384   -0.269813   -0.005157
      3          1           0        6.476267   -0.363553   -0.002493
      4          6           0        4.630203   -1.379522    0.012769
      5          1           0        5.084798   -2.348005    0.029565
      6          6           0        3.229019   -1.266549    0.009442
      7          7           0        2.500182   -2.335145    0.026730
      8          1           0        1.502988   -2.260324    0.024456
      9          1           0        2.933958   -3.236030    0.042368
     10          7           0        2.640757   -0.062011   -0.011474
     11          6           0        3.383642    1.048694   -0.029454
     12          8           0        2.832562    2.179842   -0.049092
     13          1           0        5.413305    1.762093   -0.039425
     14          7           0       -4.990575    0.425740   -0.020151
     15          6           0       -5.332462   -0.885552   -0.034895
     16          1           0       -6.338191   -1.250462   -0.050628
     17          7           0       -4.265537   -1.646542   -0.027285
     18          6           0       -3.161436   -0.688409   -0.005598
     19          6           0       -1.797483   -0.907801    0.010096
     20          8           0       -1.304747   -2.065718    0.007232
     21          7           0       -0.960227    0.298562    0.030342
     22          1           0        0.036785    0.222282    0.042479
     23          6           0       -1.554927    1.516752    0.032383
     24          7           0       -0.797522    2.619222    0.050788
     25          1           0        0.199329    2.540859    0.062907
     26          1           0       -1.228174    3.521739    0.052429
     27          7           0       -2.906555    1.635166    0.016048
     28          6           0       -3.662154    0.529916   -0.002355
     29          1           0       -5.632481    1.192520   -0.022281
 ---------------------------------------------------------------------
 Rotational constants (GHZ):      0.8912934      0.1600835      0.1357228
 Standard basis: 6-31G(d,p) (6D, 7F)
 There are   335 symmetry adapted basis functions of A   symmetry.
 Integral buffers will be    131072 words long.
 Raffenetti 2 integral format.
 Two-electron integral symmetry is turned on.
   335 basis functions,   602 primitive gaussians,   335 cartesian basis functions
    68 alpha electrons       68 beta electrons
       nuclear repulsion energy      1334.2863999227 Hartrees.
 NAtoms=   29 NActive=   29 NUniq=   29 SFac= 1.00D+00 NAtFMM=   50 NAOKFM=F Big=F
 One-electron integrals computed using PRISM.
 NBasis=   335 RedAO= T  NBF=   335
 NBsUse=   335 1.00D-06 NBFU=   335
 Harris functional with IExCor=  402 diagonalized for initial guess.
 ExpMin= 1.61D-01 ExpMax= 5.48D+03 ExpMxC= 8.25D+02 IAcc=1 IRadAn=         1 AccDes= 0.00D+00
 HarFok:  IExCor=  402 AccDes= 0.00D+00 IRadAn=         1 IDoV= 1
 ScaDFX=  1.000000  1.000000  1.000000  1.000000
 FoFCou: FMM=F IPFlag=           0 FMFlag=      100000 FMFlg1=           0
         NFxFlg=           0 DoJE=T BraDBF=F KetDBF=T FulRan=T
         Omega=  0.000000  0.000000  1.000000  0.000000  0.000000 ICntrl=     500 IOpCl=  0
         NMat0=    1 NMatS0=    1 NMatT0=    0 NMatD0=    1 NMtDS0=    0 NMtDT0=    0
         I1Cent=           4 NGrid=           0.
 Petite list used in FoFCou.
 Initial guess orbital symmetries:
       Occupied  (A) (A) (A) (A) (A) (A) (A) (A) (A) (A) (A) (A)
                 (A) (A) (A) (A) (A) (A) (A) (A) (A) (A) (A) (A)
                 (A) (A) (A) (A) (A) (A) (A) (A) (A) (A) (A) (A)
                 (A) (A) (A) (A) (A) (A) (A) (A) (A) (A) (A) (A)
                 (A) (A) (A) (A) (A) (A) (A) (A) (A) (A) (A) (A)
                 (A) (A) (A) (A) (A) (A) (A) (A)
       Virtual   (A) (A) (A) (A) (A) (A) (A) (A) (A) (A) (A) (A)
                 (A) (A) (A) (A) (A) (A) (A) (A) (A) (A) (A) (A)
                 (A) (A) (A) (A) (A) (A) (A) (A) (A) (A) (A) (A)
                 (A) (A) (A) (A) (A) (A) (A) (A) (A) (A) (A) (A)
                 (A) (A) (A) (A) (A) (A) (A) (A) (A) (A) (A) (A)
                 (A) (A) (A) (A) (A) (A) (A) (A) (A) (A) (A) (A)
                 (A) (A) (A) (A) (A) (A) (A) (A) (A) (A) (A) (A)
                 (A) (A) (A) (A) (A) (A) (A) (A) (A) (A) (A) (A)
                 (A) (A) (A) (A) (A) (A) (A) (A) (A) (A) (A) (A)
                 (A) (A) (A) (A) (A) (A) (A) (A) (A) (A) (A) (A)
                 (A) (A) (A) (A) (A) (A) (A) (A) (A) (A) (A) (A)
                 (A) (A) (A) (A) (A) (A) (A) (A) (A) (A) (A) (A)
                 (A) (A) (A) (A) (A) (A) (A) (A) (A) (A) (A) (A)
                 (A) (A) (A) (A) (A) (A) (A) (A) (A) (A) (A) (A)
                 (A) (A) (A) (A) (A) (A) (A) (A) (A) (A) (A) (A)
                 (A) (A) (A) (A) (A) (A) (A) (A) (A) (A) (A) (A)
                 (A) (A) (A) (A) (A) (A) (A) (A) (A) (A) (A) (A)
                 (A) (A) (A) (A) (A) (A) (A) (A) (A) (A) (A) (A)
                 (A) (A) (A) (A) (A) (A) (A) (A) (A) (A) (A) (A)
                 (A) (A) (A) (A) (A) (A) (A) (A) (A) (A) (A) (A)
                 (A) (A) (A) (A) (A) (A) (A) (A) (A) (A) (A) (A)
                 (A) (A) (A) (A) (A) (A) (A) (A) (A) (A) (A) (A)
                 (A) (A) (A)
 The electronic state of the initial guess is 1-A.
 Requested convergence on RMS density matrix=1.00D-08 within 128 cycles.
 Requested convergence on MAX density matrix=1.00D-06.
 Requested convergence on             energy=1.00D-06.
 No special actions if energy rises.
 Integral accuracy reduced to 1.0D-05 until final iterations.
 Initial convergence to 1.0D-05 achieved.  Increase integral accuracy.
 SCF Done:  E(RB3LYP) =  -937.494039190     A.U. after   15 cycles
             Convg  =    0.8627D-08             -V/T =  2.0087

 **********************************************************************

            Population analysis using the SCF density.

 **********************************************************************

 Orbital symmetries:
       Occupied  (A) (A) (A) (A) (A) (A) (A) (A) (A) (A) (A) (A)
                 (A) (A) (A) (A) (A) (A) (A) (A) (A) (A) (A) (A)
                 (A) (A) (A) (A) (A) (A) (A) (A) (A) (A) (A) (A)
                 (A) (A) (A) (A) (A) (A) (A) (A) (A) (A) (A) (A)
                 (A) (A) (A) (A) (A) (A) (A) (A) (A) (A) (A) (A)
                 (A) (A) (A) (A) (A) (A) (A) (A)
       Virtual   (A) (A) (A) (A) (A) (A) (A) (A) (A) (A) (A) (A)
                 (A) (A) (A) (A) (A) (A) (A) (A) (A) (A) (A) (A)
                 (A) (A) (A) (A) (A) (A) (A) (A) (A) (A) (A) (A)
                 (A) (A) (A) (A) (A) (A) (A) (A) (A) (A) (A) (A)
                 (A) (A) (A) (A) (A) (A) (A) (A) (A) (A) (A) (A)
                 (A) (A) (A) (A) (A) (A) (A) (A) (A) (A) (A) (A)
                 (A) (A) (A) (A) (A) (A) (A) (A) (A) (A) (A) (A)
                 (A) (A) (A) (A) (A) (A) (A) (A) (A) (A) (A) (A)
                 (A) (A) (A) (A) (A) (A) (A) (A) (A) (A) (A) (A)
                 (A) (A) (A) (A) (A) (A) (A) (A) (A) (A) (A) (A)
                 (A) (A) (A) (A) (A) (A) (A) (A) (A) (A) (A) (A)
                 (A) (A) (A) (A) (A) (A) (A) (A) (A) (A) (A) (A)
                 (A) (A) (A) (A) (A) (A) (A) (A) (A) (A) (A) (A)
                 (A) (A) (A) (A) (A) (A) (A) (A) (A) (A) (A) (A)
                 (A) (A) (A) (A) (A) (A) (A) (A) (A) (A) (A) (A)
                 (A) (A) (A) (A) (A) (A) (A) (A) (A) (A) (A) (A)
                 (A) (A) (A) (A) (A) (A) (A) (A) (A) (A) (A) (A)
                 (A) (A) (A) (A) (A) (A) (A) (A) (A) (A) (A) (A)
                 (A) (A) (A) (A) (A) (A) (A) (A) (A) (A) (A) (A)
                 (A) (A) (A) (A) (A) (A) (A) (A) (A) (A) (A) (A)
                 (A) (A) (A) (A) (A) (A) (A) (A) (A) (A) (A) (A)
                 (A) (A) (A) (A) (A) (A) (A) (A) (A) (A) (A) (A)
                 (A) (A) (A)
 The electronic state is 1-A.
 Alpha  occ. eigenvalues --  -19.10309 -19.09061 -14.40464 -14.37751 -14.37681
 Alpha  occ. eigenvalues --  -14.37357 -14.35523 -14.32250 -14.30324 -14.30038
 Alpha  occ. eigenvalues --  -10.31385 -10.30391 -10.28874 -10.27445 -10.27058
 Alpha  occ. eigenvalues --  -10.23374 -10.23337 -10.20376 -10.17254  -1.03712
 Alpha  occ. eigenvalues --   -1.02859  -1.00409  -0.98837  -0.97466  -0.96308
 Alpha  occ. eigenvalues --   -0.89709  -0.88957  -0.87719  -0.84972  -0.79399
 Alpha  occ. eigenvalues --   -0.74938  -0.68293  -0.66478  -0.66274  -0.64057
 Alpha  occ. eigenvalues --   -0.60269  -0.59091  -0.58123  -0.57925  -0.55166
 Alpha  occ. eigenvalues --   -0.54553  -0.52864  -0.50777  -0.50423  -0.47512
 Alpha  occ. eigenvalues --   -0.46192  -0.45785  -0.45655  -0.45020  -0.44653
 Alpha  occ. eigenvalues --   -0.41416  -0.41022  -0.40571  -0.39730  -0.38479
 Alpha  occ. eigenvalues --   -0.35956  -0.35550  -0.29273  -0.28492  -0.27877
 Alpha  occ. eigenvalues --   -0.26703  -0.26257  -0.25475  -0.25427  -0.23703
 Alpha  occ. eigenvalues --   -0.23607  -0.23163  -0.18762
 Alpha virt. eigenvalues --   -0.04095   0.00946   0.01284   0.02666   0.05338
 Alpha virt. eigenvalues --    0.07007   0.07612   0.09069   0.09472   0.10424
 Alpha virt. eigenvalues --    0.12364   0.13337   0.13605   0.14492   0.16235
 Alpha virt. eigenvalues --    0.17291   0.19068   0.19525   0.21093   0.22699
 Alpha virt. eigenvalues --    0.23733   0.24009   0.27743   0.28377   0.31527
 Alpha virt. eigenvalues --    0.32290   0.33524   0.33654   0.36291   0.37637
 Alpha virt. eigenvalues --    0.37876   0.40099   0.40812   0.42898   0.45852
 Alpha virt. eigenvalues --    0.46975   0.48466   0.48688   0.50179   0.51287
 Alpha virt. eigenvalues --    0.53979   0.54750   0.55918   0.56716   0.57140
 Alpha virt. eigenvalues --    0.57177   0.57949   0.58214   0.59226   0.59523
 Alpha virt. eigenvalues --    0.61192   0.62055   0.62720   0.63084   0.63839
 Alpha virt. eigenvalues --    0.64146   0.64574   0.64776   0.65668   0.66838
 Alpha virt. eigenvalues --    0.67838   0.69705   0.71575   0.72322   0.73164
 Alpha virt. eigenvalues --    0.73766   0.75429   0.77904   0.78340   0.79325
 Alpha virt. eigenvalues --    0.79440   0.80382   0.80453   0.81147   0.81245
 Alpha virt. eigenvalues --    0.82989   0.83843   0.84411   0.85655   0.86040
 Alpha virt. eigenvalues --    0.86162   0.88027   0.88623   0.88829   0.90658
 Alpha virt. eigenvalues --    0.92276   0.94387   0.95030   0.96042   0.97244
 Alpha virt. eigenvalues --    1.00054   1.00941   1.03065   1.04740   1.05960
 Alpha virt. eigenvalues --    1.06241   1.07364   1.08438   1.09109   1.15101
 Alpha virt. eigenvalues --    1.18114   1.20307   1.20470   1.21993   1.23701
 Alpha virt. eigenvalues --    1.24604   1.27118   1.28233   1.28513   1.28896
 Alpha virt. eigenvalues --    1.30601   1.31714   1.32579   1.32996   1.33321
 Alpha virt. eigenvalues --    1.34363   1.35187   1.36777   1.37902   1.38513
 Alpha virt. eigenvalues --    1.39097   1.40523   1.40726   1.42254   1.42285
 Alpha virt. eigenvalues --    1.45357   1.46531   1.47863   1.48543   1.50891
 Alpha virt. eigenvalues --    1.53491   1.57885   1.59922   1.61033   1.63271
 Alpha virt. eigenvalues --    1.64250   1.71583   1.73567   1.75123   1.77353
 Alpha virt. eigenvalues --    1.79485   1.79925   1.81600   1.81778   1.82352
 Alpha virt. eigenvalues --    1.84516   1.85644   1.86420   1.86728   1.87680
 Alpha virt. eigenvalues --    1.88519   1.89422   1.91059   1.92946   1.93467
 Alpha virt. eigenvalues --    1.95417   1.96922   1.98849   1.99139   1.99947
 Alpha virt. eigenvalues --    2.00800   2.01460   2.02530   2.05529   2.07583
 Alpha virt. eigenvalues --    2.08439   2.08783   2.10100   2.10603   2.10819
 Alpha virt. eigenvalues --    2.13976   2.14717   2.17163   2.17371   2.19792
 Alpha virt. eigenvalues --    2.22841   2.24922   2.25347   2.27221   2.28867
 Alpha virt. eigenvalues --    2.31458   2.33727   2.34460   2.35125   2.35719
 Alpha virt. eigenvalues --    2.36326   2.38961   2.39545   2.41566   2.43494
 Alpha virt. eigenvalues --    2.44768   2.45384   2.45726   2.46562   2.47230
 Alpha virt. eigenvalues --    2.48018   2.48320   2.53135   2.53790   2.54116
 Alpha virt. eigenvalues --    2.56045   2.56900   2.58694   2.59810   2.60235
 Alpha virt. eigenvalues --    2.61419   2.61538   2.62218   2.64876   2.65555
 Alpha virt. eigenvalues --    2.66212   2.68970   2.69802   2.74465   2.76463
 Alpha virt. eigenvalues --    2.76563   2.76959   2.77196   2.77448   2.78704
 Alpha virt. eigenvalues --    2.82785   2.84624   2.86362   2.87264   2.92614
 Alpha virt. eigenvalues --    2.94774   2.97748   2.99107   3.04247   3.04343
 Alpha virt. eigenvalues --    3.05583   3.10061   3.10821   3.15868   3.17105
 Alpha virt. eigenvalues --    3.24327   3.24982   3.30223   3.35636   3.37036
 Alpha virt. eigenvalues --    3.40446   3.41269   3.44074   3.65835   3.69802
 Alpha virt. eigenvalues --    3.73105   3.74362   3.83967   3.96279   4.01840
 Alpha virt. eigenvalues --    4.02451   4.04287   4.07891   4.09789   4.17958
 Alpha virt. eigenvalues --    4.18540   4.23095   4.33411   4.38276   4.40409
 Alpha virt. eigenvalues --    4.43703   4.48109   4.50205   4.54557   4.72313
 Alpha virt. eigenvalues --    4.72737   4.84573
          Condensed to atoms (all electrons):
              1          2          3          4          5          6
     1  N    6.982876   0.323146  -0.044623  -0.031246   0.004287  -0.022190
     2  C    0.323146   4.677722   0.377095   0.594555  -0.039602  -0.030816
     3  H   -0.044623   0.377095   0.574117  -0.033280  -0.005734   0.004005
     4  C   -0.031246   0.594555  -0.033280   5.022967   0.362239   0.422702
     5  H    0.004287  -0.039602  -0.005734   0.362239   0.617031  -0.028226
     6  C   -0.022190  -0.030816   0.004005   0.422702  -0.028226   4.397661
     7  N    0.000173   0.004782  -0.000161  -0.097703  -0.007353   0.332728
     8  H    0.000027  -0.000148   0.000003   0.007328  -0.000199  -0.015791
     9  H    0.000023   0.000227  -0.000004  -0.005379   0.004114  -0.028566
    10  N   -0.098677  -0.021307  -0.000317  -0.052523   0.004970   0.423280
    11  C    0.195523  -0.032387   0.001744  -0.029342   0.001002  -0.016379
    12  O   -0.088959   0.001681  -0.000092   0.000618   0.000007   0.001266
    13  H    0.336105  -0.031383  -0.006407   0.004627  -0.000139   0.000532
    14  N    0.000000   0.000000   0.000000   0.000000   0.000000   0.000000
    15  C    0.000000   0.000000   0.000000   0.000000   0.000000   0.000000
    16  H    0.000000   0.000000   0.000000   0.000000   0.000000   0.000000
    17  N    0.000000   0.000000   0.000000   0.000000   0.000000   0.000000
    18  C    0.000000   0.000000   0.000000   0.000000   0.000000   0.000001
    19  C    0.000000   0.000000   0.000000   0.000000   0.000000   0.000028
    20  O    0.000000   0.000000   0.000000   0.000000   0.000000   0.000021
    21  N   -0.000002   0.000000   0.000000  -0.000006   0.000000  -0.000181
    22  H    0.000070   0.000001   0.000000   0.000140  -0.000002   0.000813
    23  C    0.000000   0.000000   0.000000   0.000000   0.000000   0.000001
    24  N   -0.000002   0.000000   0.000000   0.000000   0.000000  -0.000002
    25  H    0.000075  -0.000001   0.000000  -0.000001   0.000000   0.000030
    26  H    0.000000   0.000000   0.000000   0.000000   0.000000   0.000000
    27  N    0.000000   0.000000   0.000000   0.000000   0.000000   0.000000
    28  C    0.000000   0.000000   0.000000   0.000000   0.000000   0.000000
    29  H    0.000000   0.000000   0.000000   0.000000   0.000000   0.000000
              7          8          9         10         11         12
     1  N    0.000173   0.000027   0.000023  -0.098677   0.195523  -0.088959
     2  C    0.004782  -0.000148   0.000227  -0.021307  -0.032387   0.001681
     3  H   -0.000161   0.000003  -0.000004  -0.000317   0.001744  -0.000092
     4  C   -0.097703   0.007328  -0.005379  -0.052523  -0.029342   0.000618
     5  H   -0.007353  -0.000199   0.004114   0.004970   0.001002   0.000007
     6  C    0.332728  -0.015791  -0.028566   0.423280  -0.016379   0.001266
     7  N    6.813268   0.306459   0.358127  -0.091372   0.002786  -0.000050
     8  H    0.306459   0.396813  -0.022579   0.000136  -0.000368  -0.000028
     9  H    0.358127  -0.022579   0.407099   0.004191  -0.000109   0.000001
    10  N   -0.091372   0.000136   0.004191   7.109314   0.375078  -0.104155
    11  C    0.002786  -0.000368  -0.000109   0.375078   4.260697   0.561388
    12  O   -0.000050  -0.000028   0.000001  -0.104155   0.561388   8.162816
    13  H    0.000020  -0.000001  -0.000001   0.004685  -0.007752   0.006283
    14  N    0.000000   0.000000   0.000000   0.000000   0.000000   0.000000
    15  C    0.000000   0.000000   0.000000   0.000000   0.000000   0.000000
    16  H    0.000000   0.000000   0.000000   0.000000   0.000000   0.000000
    17  N    0.000000   0.000000   0.000000   0.000000   0.000000   0.000000
    18  C   -0.000007   0.000214   0.000000  -0.000002   0.000000   0.000000
    19  C   -0.000291   0.002125  -0.000001  -0.000097  -0.000006  -0.000001
    20  O   -0.002388   0.018387  -0.000010  -0.000080  -0.000001   0.000000
    21  N    0.000238  -0.001600   0.000000  -0.005388  -0.000242  -0.000069
    22  H   -0.001394   0.003443   0.000004   0.029316   0.000979  -0.000009
    23  C   -0.000002   0.000031   0.000000   0.000018   0.000028   0.000042
    24  N    0.000000  -0.000001   0.000000  -0.000023  -0.000228  -0.003239
    25  H    0.000000   0.000000   0.000000  -0.000337   0.001341   0.021916
    26  H    0.000000   0.000000   0.000000   0.000000   0.000000  -0.000007
    27  N    0.000000   0.000000   0.000000   0.000000   0.000000   0.000000
    28  C    0.000000  -0.000006   0.000000   0.000000   0.000000   0.000000
    29  H    0.000000   0.000000   0.000000   0.000000   0.000000   0.000000
             13         14         15         16         17         18
     1  N    0.336105   0.000000   0.000000   0.000000   0.000000   0.000000
     2  C   -0.031383   0.000000   0.000000   0.000000   0.000000   0.000000
     3  H   -0.006407   0.000000   0.000000   0.000000   0.000000   0.000000
     4  C    0.004627   0.000000   0.000000   0.000000   0.000000   0.000000
     5  H   -0.000139   0.000000   0.000000   0.000000   0.000000   0.000000
     6  C    0.000532   0.000000   0.000000   0.000000   0.000000   0.000001
     7  N    0.000020   0.000000   0.000000   0.000000   0.000000  -0.000007
     8  H   -0.000001   0.000000   0.000000   0.000000   0.000000   0.000214
     9  H   -0.000001   0.000000   0.000000   0.000000   0.000000   0.000000
    10  N    0.004685   0.000000   0.000000   0.000000   0.000000  -0.000002
    11  C   -0.007752   0.000000   0.000000   0.000000   0.000000   0.000000
    12  O    0.006283   0.000000   0.000000   0.000000   0.000000   0.000000
    13  H    0.411794   0.000000   0.000000   0.000000   0.000000   0.000000
    14  N    0.000000   6.906631   0.336710  -0.055321  -0.075835  -0.076766
    15  C    0.000000   0.336710   4.663527   0.392215   0.518662  -0.083408
    16  H    0.000000  -0.055321   0.392215   0.572662  -0.036254   0.004349
    17  N    0.000000  -0.075835   0.518662  -0.036254   6.836903   0.371571
    18  C    0.000000  -0.076766  -0.083408   0.004349   0.371571   5.218457
    19  C    0.000000   0.006341   0.008084  -0.000183  -0.059968   0.333502
    20  O    0.000000  -0.000085   0.000321  -0.000001  -0.003277  -0.091604
    21  N    0.000000   0.000320  -0.000042   0.000002   0.002060  -0.103368
    22  H   -0.000002   0.000017   0.000001   0.000000  -0.000006   0.006533
    23  C    0.000000   0.000676   0.000024   0.000002   0.000520  -0.007704
    24  N    0.000000  -0.000093   0.000000   0.000000   0.000002   0.000880
    25  H   -0.000004   0.000001   0.000000   0.000000   0.000000  -0.000043
    26  H    0.000000  -0.000022   0.000000   0.000000  -0.000001   0.000080
    27  N    0.000000  -0.072462   0.003161  -0.000054   0.009399  -0.062242
    28  C    0.000000   0.270837  -0.089464   0.004308  -0.081527   0.341991
    29  H    0.000000   0.334827  -0.026552  -0.000190   0.004758   0.013300
             19         20         21         22         23         24
     1  N    0.000000   0.000000  -0.000002   0.000070   0.000000  -0.000002
     2  C    0.000000   0.000000   0.000000   0.000001   0.000000   0.000000
     3  H    0.000000   0.000000   0.000000   0.000000   0.000000   0.000000
     4  C    0.000000   0.000000  -0.000006   0.000140   0.000000   0.000000
     5  H    0.000000   0.000000   0.000000  -0.000002   0.000000   0.000000
     6  C    0.000028   0.000021  -0.000181   0.000813   0.000001  -0.000002
     7  N   -0.000291  -0.002388   0.000238  -0.001394  -0.000002   0.000000
     8  H    0.002125   0.018387  -0.001600   0.003443   0.000031  -0.000001
     9  H   -0.000001  -0.000010   0.000000   0.000004   0.000000   0.000000
    10  N   -0.000097  -0.000080  -0.005388   0.029316   0.000018  -0.000023
    11  C   -0.000006  -0.000001  -0.000242   0.000979   0.000028  -0.000228
    12  O   -0.000001   0.000000  -0.000069  -0.000009   0.000042  -0.003239
    13  H    0.000000   0.000000   0.000000  -0.000002   0.000000   0.000000
    14  N    0.006341  -0.000085   0.000320   0.000017   0.000676  -0.000093
    15  C    0.008084   0.000321  -0.000042   0.000001   0.000024   0.000000
    16  H   -0.000183  -0.000001   0.000002   0.000000   0.000002   0.000000
    17  N   -0.059968  -0.003277   0.002060  -0.000006   0.000520   0.000002
    18  C    0.333502  -0.091604  -0.103368   0.006533  -0.007704   0.000880
    19  C    4.530211   0.554008   0.222012  -0.011633  -0.036401   0.000277
    20  O    0.554008   8.149160  -0.079273   0.002957   0.001754  -0.000040
    21  N    0.222012  -0.079273   7.170249   0.300844   0.297194  -0.080596
    22  H   -0.011633   0.002957   0.300844   0.395453  -0.016507  -0.004508
    23  C   -0.036401   0.001754   0.297194  -0.016507   4.247762   0.339800
    24  N    0.000277  -0.000040  -0.080596  -0.004508   0.339800   6.819698
    25  H    0.000069  -0.000002  -0.005294   0.003677  -0.019193   0.322538
    26  H    0.000025   0.000001   0.005218  -0.000162  -0.016518   0.341235
    27  N   -0.040957   0.000232  -0.073112   0.003926   0.542470  -0.087490
    28  C   -0.060574   0.006514  -0.011135  -0.000430  -0.056760  -0.001397
    29  H    0.000114   0.000001   0.000034  -0.000001  -0.000115  -0.000011
             25         26         27         28         29
     1  N    0.000075   0.000000   0.000000   0.000000   0.000000
     2  C   -0.000001   0.000000   0.000000   0.000000   0.000000
     3  H    0.000000   0.000000   0.000000   0.000000   0.000000
     4  C   -0.000001   0.000000   0.000000   0.000000   0.000000
     5  H    0.000000   0.000000   0.000000   0.000000   0.000000
     6  C    0.000030   0.000000   0.000000   0.000000   0.000000
     7  N    0.000000   0.000000   0.000000   0.000000   0.000000
     8  H    0.000000   0.000000   0.000000  -0.000006   0.000000
     9  H    0.000000   0.000000   0.000000   0.000000   0.000000
    10  N   -0.000337   0.000000   0.000000   0.000000   0.000000
    11  C    0.001341   0.000000   0.000000   0.000000   0.000000
    12  O    0.021916  -0.000007   0.000000   0.000000   0.000000
    13  H   -0.000004   0.000000   0.000000   0.000000   0.000000
    14  N    0.000001  -0.000022  -0.072462   0.270837   0.334827
    15  C    0.000000   0.000000   0.003161  -0.089464  -0.026552
    16  H    0.000000   0.000000  -0.000054   0.004308  -0.000190
    17  N    0.000000  -0.000001   0.009399  -0.081527   0.004758
    18  C   -0.000043   0.000080  -0.062242   0.341991   0.013300
    19  C    0.000069   0.000025  -0.040957  -0.060574   0.000114
    20  O   -0.000002   0.000001   0.000232   0.006514   0.000001
    21  N   -0.005294   0.005218  -0.073112  -0.011135   0.000034
    22  H    0.003677  -0.000162   0.003926  -0.000430  -0.000001
    23  C   -0.019193  -0.016518   0.542470  -0.056760  -0.000115
    24  N    0.322538   0.341235  -0.087490  -0.001397  -0.000011
    25  H    0.392437  -0.020582   0.003458  -0.000017   0.000000
    26  H   -0.020582   0.396134   0.005477   0.000573   0.000006
    27  N    0.003458   0.005477   6.997288   0.399705   0.001859
    28  C   -0.000017   0.000573   0.399705   4.749164  -0.031421
    29  H    0.000000   0.000006   0.001859  -0.031421   0.445967
 Mulliken atomic charges:
              1
     1  N   -0.556605
     2  C    0.176436
     3  H    0.133653
     4  C   -0.165697
     5  H    0.087605
     6  C    0.559080
     7  N   -0.617861
     8  H    0.305753
     9  H    0.282864
    10  N   -0.576710
    11  C    0.686249
    12  O   -0.559411
    13  H    0.281643
    14  N   -0.575775
    15  C    0.276762
    16  H    0.118466
    17  N   -0.487008
    18  C    0.134266
    19  C    0.553319
    20  O   -0.556596
    21  N   -0.637866
    22  H    0.286479
    23  C    0.722877
    24  N   -0.646803
    25  H    0.299931
    26  H    0.288541
    27  N   -0.630657
    28  C    0.559638
    29  H    0.257423
 Sum of Mulliken atomic charges =   0.00000
 Mulliken charges with hydrogens summed into heavy atoms:
              1
     1  N   -0.274962
     2  C    0.310090
     4  C   -0.078091
     6  C    0.559080
     7  N   -0.029244
    10  N   -0.576710
    11  C    0.686249
    12  O   -0.559411
    14  N   -0.318352
    15  C    0.395228
    17  N   -0.487008
    18  C    0.134266
    19  C    0.553319
    20  O   -0.556596
    21  N   -0.351387
    23  C    0.722877
    24  N   -0.058331
    27  N   -0.630657
    28  C    0.559638
 Sum of Mulliken charges with hydrogens summed into heavy atoms =   0.00000
 Electronic spatial extent (au):  <R**2>=           7248.1147
 Charge=              0.0000 electrons
 Dipole moment (field-independent basis, Debye):
    X=              6.1193    Y=              1.5632    Z=              0.1629  Tot=              6.3180
 Quadrupole moment (field-independent basis, Debye-Ang):
   XX=            -47.9620   YY=           -105.6484   ZZ=           -109.7297
   XY=            -23.5017   XZ=              0.3534   YZ=              0.0829
 Traceless Quadrupole moment (field-independent basis, Debye-Ang):
   XX=             39.8180   YY=            -17.8684   ZZ=            -21.9497
   XY=            -23.5017   XZ=              0.3534   YZ=              0.0829
 Octapole moment (field-independent basis, Debye-Ang**2):
  XXX=            104.2280  YYY=             14.7984  ZZZ=             -0.1432  XYY=             60.4164
  XXY=             31.3612  XXZ=             -1.5741  XZZ=              0.5193  YZZ=              2.2568
  YYZ=              1.7475  XYZ=             -0.0997
 Hexadecapole moment (field-independent basis, Debye-Ang**3):
 XXXX=          -4929.6791 YYYY=          -1279.6956 ZZZZ=            -99.4437 XXXY=           -102.0663
 XXXZ=              5.6178 YYYX=           -236.5132 YYYZ=              0.7750 ZZZX=             -0.8954
 ZZZY=             -0.5459 XXYY=          -1499.6421 XXZZ=          -1406.1303 YYZZ=           -273.3025
 XXYZ=             -3.9734 YYXZ=              2.1077 ZZXY=             14.1893
 N-N= 1.334286399923D+03 E-N=-4.855671245607D+03  KE= 9.294431374737D+02
 Calling FoFJK, ICntrl=      2127 FMM=F ISym2X=0 I1Cent= 0 IOpClX= 0 NMat=1 NMatS=1 NMatT=0.
 ***** Axes restored to original set *****
 -------------------------------------------------------------------
 Center     Atomic                   Forces (Hartrees/Bohr)
 Number     Number              X              Y              Z
 -------------------------------------------------------------------
      1        7          -0.012336817   -0.005739171    0.029782030
      2        6          -0.014227904   -0.011070846   -0.002657424
      3        1           0.007908780    0.005107459   -0.007425865
      4        6           0.004649783    0.000663109   -0.024415097
      5        1          -0.003079153   -0.003461540   -0.009571514
      6        6           0.044417584    0.035395757    0.014355601
      7        7          -0.036866439   -0.027661730    0.003109586
      8        1          -0.007860784   -0.004400121    0.011884585
      9        1          -0.005098727   -0.004094174   -0.002112542
     10        7          -0.019587227   -0.016316793   -0.008974660
     11        6           0.032193715    0.029143907    0.040150795
     12        8          -0.002611104   -0.007044161   -0.038439691
     13        1           0.007014561    0.006192416    0.007294152
     14        7           0.003229307    0.008405948    0.054001383
     15        6          -0.002740779   -0.006385924   -0.039234817
     16        1          -0.003710021   -0.001808780    0.007470240
     17        7           0.015628073    0.009278105   -0.016702140
     18        6          -0.073626073   -0.052636979   -0.000013744
     19        6          -0.010340582   -0.016162680   -0.078000335
     20        8           0.030913911    0.023472417    0.012339349
     21        7          -0.032016776   -0.020959415    0.019782067
     22        1           0.002252041    0.000100206   -0.018604909
     23        6          -0.031553436   -0.017046572    0.048008913
     24        7           0.004080023    0.001791663   -0.005903058
     25        1           0.006842734    0.004576597   -0.010020422
     26        1          -0.000314389    0.000462321    0.005464775
     27        7           0.039811210    0.028483447    0.000216220
     28        6           0.052744467    0.037762513    0.000403736
     29        1           0.004284022    0.003953021    0.007812786
 -------------------------------------------------------------------
 Cartesian Forces:  Max     0.078000335 RMS     0.023571323

 GradGradGradGradGradGradGradGradGradGradGradGradGradGradGradGradGradGrad
 Berny optimization.
 Internal  Forces:  Max     0.075696104 RMS     0.013595565
 Search for a local minimum.
 Step number   1 out of a maximum of  174
 All quantities printed in internal units (Hartrees-Bohrs-Radians)
 Mixed Optimization -- RFO/linear search
 Second derivative matrix not updated -- first step.
 ITU=  0
     Eigenvalues ---    0.00519   0.00883   0.01094   0.01247   0.01430
     Eigenvalues ---    0.01464   0.01482   0.01648   0.01667   0.01720
     Eigenvalues ---    0.01839   0.01935   0.02015   0.02046   0.02184
     Eigenvalues ---    0.02227   0.02282   0.02341   0.02356   0.02379
     Eigenvalues ---    0.02411   0.02430   0.02498   0.02542   0.02610
     Eigenvalues ---    0.02626   0.02715   0.02780   0.05057   0.07029
     Eigenvalues ---    0.08478   0.08971   0.15988   0.15993   0.16000
     Eigenvalues ---    0.16000   0.16000   0.16000   0.16000   0.16000
     Eigenvalues ---    0.20168   0.21555   0.22137   0.22696   0.22956
     Eigenvalues ---    0.23226   0.23504   0.23850   0.24735   0.25000
     Eigenvalues ---    0.25000   0.33240   0.35115   0.35146   0.37230
     Eigenvalues ---    0.37230   0.37230   0.39371   0.43210   0.45392
     Eigenvalues ---    0.46475   0.47686   0.47688   0.47688   0.47688
     Eigenvalues ---    0.47688   0.48481   0.48713   0.50776   0.52349
     Eigenvalues ---    0.53637   0.54160   0.55747   0.56019   0.57389
     Eigenvalues ---    0.57733   0.58557   0.63025   0.67957   0.78813
     Eigenvalues ---    0.78955
 RFO step:  Lambda=-6.37182148D-02 EMin= 5.19175642D-03
 Linear search not attempted -- first point.
 Maximum step size (   0.300) exceeded in Quadratic search.
    -- Step size scaled by   0.733
 Iteration  1 RMS(Cart)=  0.04669756 RMS(Int)=  0.00075515
 Iteration  2 RMS(Cart)=  0.00131988 RMS(Int)=  0.00017201
 Iteration  3 RMS(Cart)=  0.00000041 RMS(Int)=  0.00017201
 Variable       Old X    -DE/DX   Delta X   Delta X   Delta X     New X
                                 (Linear)    (Quad)   (Total)
    R1        2.52238   0.02091   0.00000   0.02332   0.02338   2.54576
    R2        2.76972  -0.02472   0.00000  -0.04412  -0.04415   2.72557
    R3        1.88973   0.00874   0.00000   0.01185   0.01185   1.90158
    R4        2.02201   0.01075   0.00000   0.01806   0.01806   2.04007
    R5        2.56367   0.00239   0.00000   0.00372   0.00380   2.56747
    R6        2.02201   0.01050   0.00000   0.01764   0.01764   2.03965
    R7        2.65645   0.02537   0.00000   0.03778   0.03780   2.69425
    R8        2.44455   0.05473   0.00000   0.05519   0.05510   2.49965
    R9        2.53350   0.00298   0.00000   0.00374   0.00368   2.53718
   R10        1.88973   0.00498   0.00000   0.00956   0.00948   1.89921
   R11        1.88973   0.00542   0.00000   0.00734   0.00734   1.89707
   R12        5.31868  -0.00968   0.00000  -0.07160  -0.07167   5.24700
   R13        2.52536   0.02071   0.00000   0.02339   0.02335   2.54871
   R14        4.95108   0.00291   0.00000   0.00670   0.00696   4.95805
   R15        2.37803  -0.04251   0.00000  -0.03548  -0.03561   2.34242
   R16        5.02710  -0.00790   0.00000  -0.07042  -0.07061   4.95649
   R17        2.56097   0.03119   0.00000   0.03596   0.03624   2.59721
   R18        2.51828   0.02725   0.00000   0.03522   0.03551   2.55379
   R19        1.88973   0.00934   0.00000   0.01266   0.01266   1.90238
   R20        2.02201   0.00792   0.00000   0.01331   0.01331   2.03532
   R21        2.47654   0.00445   0.00000  -0.00074  -0.00084   2.47571
   R22        2.76283  -0.03325   0.00000  -0.05903  -0.05938   2.70345
   R23        2.61080   0.03107   0.00000   0.04509   0.04494   2.65574
   R24        2.48917   0.07570   0.00000   0.09046   0.08991   2.57908
   R25        2.37803  -0.03469   0.00000  -0.02942  -0.02940   2.34863
   R26        2.77521  -0.01808   0.00000  -0.03958  -0.03915   2.73606
   R27        1.88973   0.02048   0.00000   0.02481   0.02508   1.91480
   R28        2.56172   0.03217   0.00000   0.03203   0.03260   2.59432
   R29        2.52789   0.01244   0.00000   0.01368   0.01363   2.54151
   R30        2.56418  -0.03644   0.00000  -0.04767  -0.04754   2.51663
   R31        1.88973   0.00488   0.00000   0.00678   0.00660   1.89632
   R32        1.88973   0.00456   0.00000   0.00618   0.00618   1.89590
   R33        2.53029   0.00517   0.00000   0.00910   0.00876   2.53905
    A1        2.08279   0.01164   0.00000   0.02657   0.02665   2.10944
    A2        2.10020   0.00175   0.00000   0.01152   0.01148   2.11168
    A3        2.10020  -0.01339   0.00000  -0.03809  -0.03813   2.06207
    A4        2.09576  -0.00663   0.00000  -0.02109  -0.02118   2.07458
    A5        2.09167   0.00251   0.00000   0.00700   0.00718   2.09885
    A6        2.09576   0.00412   0.00000   0.01409   0.01400   2.10976
    A7        2.09008   0.00575   0.00000   0.01181   0.01174   2.10182
    A8        2.10303  -0.01498   0.00000  -0.03500  -0.03485   2.06817
    A9        2.09008   0.00923   0.00000   0.02319   0.02312   2.11320
   A10        2.08883   0.00515   0.00000   0.00916   0.00916   2.09799
   A11        2.10552   0.00570   0.00000   0.01421   0.01423   2.11975
   A12        2.08883  -0.01085   0.00000  -0.02337  -0.02339   2.06545
   A13        2.09440  -0.00509   0.00000  -0.00565  -0.00572   2.08867
   A14        2.09440   0.00654   0.00000   0.01592   0.01595   2.11035
   A15        2.09440  -0.00145   0.00000  -0.01027  -0.01023   2.08416
   A16        2.09790   0.00138   0.00000   0.00616   0.00583   2.10373
   A17        2.13325   0.00472   0.00000   0.00913   0.00916   2.14242
   A18        2.05171  -0.00610   0.00000  -0.01528  -0.01497   2.03674
   A19        2.08546  -0.00625   0.00000  -0.01895  -0.01903   2.06644
   A20        2.09886  -0.01647   0.00000  -0.03684  -0.03681   2.06205
   A21        2.09886   0.02271   0.00000   0.05579   0.05584   2.15470
   A22        2.15893  -0.01107   0.00000  -0.03638  -0.03668   2.12225
   A23        1.90421  -0.02057   0.00000  -0.04244  -0.04198   1.86223
   A24        2.18949   0.01294   0.00000   0.02991   0.02968   2.21917
   A25        2.18949   0.00763   0.00000   0.01254   0.01230   2.20179
   A26        2.17398  -0.01472   0.00000  -0.03476  -0.03479   2.13919
   A27        1.93522   0.02301   0.00000   0.04846   0.04853   1.98375
   A28        2.17398  -0.00829   0.00000  -0.01370  -0.01373   2.16025
   A29        1.80735   0.00133   0.00000  -0.01326  -0.01400   1.79335
   A30        2.26745   0.00025   0.00000  -0.01289  -0.01244   2.25501
   A31        1.89559   0.00970   0.00000   0.02477   0.02454   1.92013
   A32        2.12015  -0.00994   0.00000  -0.01188  -0.01210   2.10805
   A33        2.13253   0.02248   0.00000   0.06003   0.05968   2.19222
   A34        2.01812  -0.02592   0.00000  -0.05505  -0.05490   1.96322
   A35        2.13253   0.00344   0.00000  -0.00498  -0.00478   2.12775
   A36        2.04229   0.01364   0.00000   0.03429   0.03461   2.07691
   A37        2.10124  -0.01261   0.00000  -0.04153  -0.04180   2.05944
   A38        2.08070   0.02206   0.00000   0.04845   0.04884   2.12954
   A39        2.10124  -0.00945   0.00000  -0.00692  -0.00703   2.09421
   A40        2.08546  -0.00287   0.00000  -0.00479  -0.00481   2.08065
   A41        2.11227   0.02469   0.00000   0.04162   0.04211   2.15438
   A42        2.08546  -0.02182   0.00000  -0.03683  -0.03731   2.04815
   A43        2.09440   0.01264   0.00000   0.03226   0.03225   2.12665
   A44        2.09440  -0.00922   0.00000  -0.02561  -0.02561   2.06878
   A45        2.09440  -0.00343   0.00000  -0.00664  -0.00664   2.08775
   A46        2.08317  -0.02935   0.00000  -0.07121  -0.07135   2.01183
   A47        1.88242  -0.01346   0.00000  -0.01752  -0.01709   1.86533
   A48        2.24881  -0.00499   0.00000  -0.03055  -0.03031   2.21850
   A49        2.15196   0.01845   0.00000   0.04807   0.04740   2.19936
   A50        3.14721  -0.00293   0.00000  -0.00054  -0.00054   3.14667
   A51        3.10823   0.00969   0.00000   0.03273   0.03254   3.14077
   A52        3.08144   0.00384   0.00000   0.00809   0.00799   3.08943
   A53        3.13453   0.00022   0.00000   0.00080   0.00079   3.13532
   A54        3.19439   0.00008   0.00000  -0.00159  -0.00161   3.19277
   A55        3.22846   0.00033   0.00000  -0.00037  -0.00037   3.22809
    D1        3.14159  -0.00002   0.00000  -0.00006  -0.00006   3.14154
    D2        0.00000  -0.00005   0.00000  -0.00013  -0.00013  -0.00013
    D3        0.00000   0.00003   0.00000   0.00006   0.00006   0.00006
    D4        3.14159   0.00001   0.00000  -0.00001  -0.00001   3.14158
    D5        0.00000   0.00005   0.00000   0.00012   0.00012   0.00012
    D6        3.14159   0.00007   0.00000  -0.00006  -0.00006   3.14153
    D7       -3.14159   0.00000   0.00000   0.00000   0.00000  -3.14159
    D8        0.00000   0.00001   0.00000  -0.00018  -0.00018  -0.00018
    D9        3.14159   0.00005   0.00000   0.00010   0.00010  -3.14150
   D10        0.00000  -0.00001   0.00000   0.00002   0.00003   0.00003
   D11        0.00000   0.00003   0.00000   0.00002   0.00002   0.00002
   D12        3.14159  -0.00003   0.00000  -0.00005  -0.00005   3.14154
   D13       -3.14159   0.00014   0.00000   0.00022   0.00021  -3.14138
   D14        0.00000   0.00007   0.00000   0.00011   0.00010   0.00010
   D15        0.00000   0.00008   0.00000   0.00014   0.00013   0.00014
   D16       -3.14159   0.00000   0.00000   0.00003   0.00003  -3.14156
   D17       -3.14159  -0.00021   0.00000  -0.00026  -0.00025   3.14134
   D18        0.00000  -0.00007   0.00000  -0.00013  -0.00012  -0.00012
   D19        0.00000  -0.00014   0.00000  -0.00015  -0.00015  -0.00014
   D20       -3.14159   0.00000   0.00000  -0.00001  -0.00002   3.14158
   D21        0.00000  -0.00006   0.00000  -0.00012  -0.00011  -0.00012
   D22       -3.11389  -0.00004   0.00000  -0.00061  -0.00062  -3.11451
   D23        3.14159  -0.00014   0.00000  -0.00023  -0.00022   3.14137
   D24        0.02770  -0.00011   0.00000  -0.00072  -0.00073   0.02697
   D25       -0.02362   0.00017   0.00000   0.00060   0.00059  -0.02304
   D26        3.12133  -0.00005   0.00000   0.00005   0.00005   3.12138
   D27        0.00000   0.00000   0.00000   0.00000   0.00001   0.00001
   D28       -3.14159  -0.00001   0.00000   0.00018   0.00020  -3.14139
   D29        3.11516   0.00014   0.00000   0.00084   0.00084   3.11600
   D30       -0.02643   0.00013   0.00000   0.00102   0.00103  -0.02540
   D31       -0.04767   0.00022   0.00000   0.00093   0.00092  -0.04676
   D32        3.12148  -0.00048   0.00000  -0.00142  -0.00139   3.12009
   D33        3.11032   0.00022   0.00000   0.00088   0.00088   3.11120
   D34       -0.00371  -0.00048   0.00000  -0.00147  -0.00143  -0.00514
   D35       -3.08701  -0.00040   0.00000  -0.00141  -0.00138  -3.08839
   D36        0.05458  -0.00039   0.00000  -0.00159  -0.00158   0.05301
   D37       -0.06599  -0.00012   0.00000   0.00025   0.00025  -0.06574
   D38        3.12077   0.00014   0.00000   0.00091   0.00092   3.12169
   D39        3.14159   0.00000   0.00000  -0.00001  -0.00001   3.14158
   D40        0.00000   0.00000   0.00000   0.00002   0.00002   0.00002
   D41        0.00000  -0.00001   0.00000  -0.00002  -0.00002  -0.00002
   D42       -3.14159  -0.00001   0.00000   0.00000   0.00001  -3.14158
   D43        0.00000   0.00000   0.00000   0.00002   0.00002   0.00002
   D44       -3.14159  -0.00003   0.00000   0.00001   0.00002  -3.14157
   D45        3.14159   0.00001   0.00000   0.00003   0.00003  -3.14156
   D46        0.00000  -0.00002   0.00000   0.00002   0.00003   0.00003
   D47        0.00000   0.00000   0.00000  -0.00004  -0.00004  -0.00004
   D48       -3.14159   0.00000   0.00000  -0.00002  -0.00002   3.14158
   D49        3.14159  -0.00002   0.00000  -0.00005  -0.00005   3.14154
   D50        0.00000   0.00000   0.00000   0.00006   0.00006   0.00006
   D51        0.00000   0.00000   0.00000  -0.00018  -0.00019  -0.00019
   D52       -3.14159   0.00005   0.00000   0.00011   0.00011  -3.14148
   D53        3.14159  -0.00002   0.00000  -0.00030  -0.00031   3.14128
   D54        0.00000   0.00003   0.00000   0.00000  -0.00001  -0.00001
   D55        0.00000   0.00000   0.00000  -0.00005  -0.00005  -0.00005
   D56        3.14159   0.00002   0.00000  -0.00004  -0.00005   3.14154
   D57       -3.14159   0.00002   0.00000   0.00005   0.00005  -3.14154
   D58        0.00000   0.00004   0.00000   0.00006   0.00005   0.00005
   D59        3.13477   0.00012   0.00000   0.00045   0.00046   3.13523
   D60       -0.00683   0.00007   0.00000   0.00014   0.00014  -0.00669
   D61       -3.14159   0.00013   0.00000   0.00040   0.00040  -3.14120
   D62        0.00000  -0.00014   0.00000  -0.00021  -0.00018  -0.00019
   D63        0.00000   0.00017   0.00000   0.00069   0.00068   0.00068
   D64       -3.14159  -0.00009   0.00000   0.00009   0.00010  -3.14149
   D65        3.14159   0.00015   0.00000   0.00016   0.00016  -3.14143
   D66        0.00000   0.00019   0.00000   0.00037   0.00037   0.00037
   D67        0.00000  -0.00012   0.00000  -0.00044  -0.00043  -0.00043
   D68       -3.14159  -0.00008   0.00000  -0.00023  -0.00022   3.14137
   D69        0.00000   0.00037   0.00000   0.00144   0.00144   0.00144
   D70       -3.14159   0.00004   0.00000   0.00007   0.00006  -3.14153
   D71        3.14159   0.00033   0.00000   0.00124   0.00124  -3.14035
   D72        0.00000   0.00000   0.00000  -0.00014  -0.00013  -0.00013
   D73        0.00000  -0.00012   0.00000  -0.00032  -0.00031  -0.00031
   D74       -3.14159  -0.00008   0.00000  -0.00011  -0.00011   3.14149
   D75        3.14159   0.00003   0.00000   0.00011   0.00011  -3.14149
   D76        0.00000   0.00000   0.00000   0.00010   0.00010   0.00010
         Item               Value     Threshold  Converged?
 Maximum Force            0.075696     0.000450     NO 
 RMS     Force            0.013596     0.000300     NO 
 Maximum Displacement     0.228678     0.001800     NO 
 RMS     Displacement     0.046790     0.001200     NO 
 Predicted change in Energy=-3.246257D-02
 GradGradGradGradGradGradGradGradGradGradGradGradGradGradGradGradGradGrad

                          Input orientation:                          
 ---------------------------------------------------------------------
 Center     Atomic      Atomic             Coordinates (Angstroms)
 Number     Number       Type             X           Y           Z
 ---------------------------------------------------------------------
      1          7           0       12.168664    8.585071  -10.319406
      2          6           0       11.657827    8.063900  -11.451772
      3          1           0       12.125677    8.305764  -12.394145
      4          6           0       10.572248    7.248501  -11.401162
      5          1           0       10.160771    6.829370  -12.306688
      6          6           0        9.994772    6.962814  -10.129302
      7          7           0        8.937416    6.172975  -10.040791
      8          1           0        8.536949    5.976804   -9.140122
      9          1           0        8.527944    5.765400  -10.861767
     10          7           0       10.500414    7.480086   -8.998205
     11          6           0       11.577722    8.290604   -9.037090
     12          8           0       12.088605    8.797094   -8.027653
     13          1           0       12.972283    9.190193  -10.344042
     14          7           0        7.466158    5.979004   -2.154829
     15          6           0        6.417547    5.184098   -2.551656
     16          1           0        5.715063    4.760109   -1.853963
     17          7           0        6.360348    4.997218   -3.847085
     18          6           0        7.482121    5.746094   -4.323994
     19          6           0        7.936672    5.922740   -5.642024
     20          8           0        7.414898    5.434529   -6.658909
     21          7           0        9.116615    6.758767   -5.713436
     22          1           0        9.515455    6.941597   -6.626791
     23          6           0        9.694757    7.299022   -4.591557
     24          7           0       10.790226    8.068050   -4.723196
     25          1           0       11.197775    8.260038   -5.619876
     26          1           0       11.204421    8.457606   -3.896615
     27          7           0        9.228493    7.104087   -3.359427
     28          6           0        8.133410    6.330024   -3.276375
     29          1           0        7.700006    6.252236   -1.214564
 ---------------------------------------------------------------------
                    Distance matrix (angstroms):
                    1          2          3          4          5
     1  N    0.000000
     2  C    1.347156   0.000000
     3  H    2.093897   1.079559   0.000000
     4  C    2.346308   1.358646   2.125314   0.000000
     5  H    3.326171   2.120406   2.459318   1.079334   0.000000
     6  C    2.719130   2.393130   3.387297   1.425736   2.187778
     7  N    4.041881   3.600987   4.500230   2.383284   2.657394
     8  H    4.624189   4.409033   5.375099   3.297266   3.659345
     9  H    4.636760   3.927770   4.663187   2.582579   2.426098
    10  N    2.397837   2.774966   3.854301   2.415160   3.388931
    11  C    1.442310   2.426624   3.401515   2.772327   3.851393
    12  O    2.302932   3.528135   4.394205   4.009744   5.089069
    13  H    1.006272   2.055090   2.387861   3.263102   4.162940
    14  N    9.775759  10.409132  11.487755   9.836366  10.537756
    15  C   10.245970  10.722214  11.798396   9.991850  10.577301
    16  H   11.311190  11.762203  12.836007  10.996970  11.545805
    17  N    9.407452   9.762125  10.827637   8.937139   9.453300
    18  C    8.122095   8.579858   9.656182   7.867174   8.489526
    19  C    6.846580   7.223900   8.295644   6.470825   7.084232
    20  O    6.776684   6.920085   7.957912   5.978990   6.432947
    21  N    5.819394   6.410119   7.488626   5.891429   6.675793
    22  H    4.834867   5.397200   6.475847   4.899554   5.717540
    23  C    6.370431   7.176436   8.234275   6.866095   7.743448
    24  N    5.786620   6.784283   7.789955   6.731598   7.709728
    25  H    4.809766   5.853300   6.837676   5.902352   6.916331
    26  H    6.496018   7.578983   8.548671   7.627569   8.629582
    27  N    7.699300   8.503467   9.563672   8.154510   8.999894
    28  C    8.424535   9.070003  10.147683   8.532508   9.268554
    29  H   10.407169  11.124159  12.197810  10.630574  11.376452
                    6          7          8          9         10
     6  C    0.000000
     7  N    1.322755   0.000000
     8  H    2.018896   1.005018   0.000000
     9  H    2.030243   1.003886   1.734599   0.000000
    10  N    1.342619   2.288774   2.476932   3.209930   0.000000
    11  C    2.337025   3.530296   3.822380   4.359730   1.348720
    12  O    3.487929   4.568229   4.669677   5.468242   2.280095
    13  H    3.724635   5.047348   5.607806   5.634660   3.293309
    14  N    8.423419   8.024376   7.066888   8.774040   7.634903
    15  C    8.566277   7.963339   6.966214   8.593581   7.968648
    16  H    9.573351   8.910886   7.907686   9.490176   9.018760
    17  N    7.519232   6.810703   5.806326   7.382028   7.059660
    18  C    6.441694   5.914548   4.935684   6.620921   5.827955
    19  C    5.045116   4.518103   3.549640   5.255481   4.501338
    20  O    4.586397   3.781599   2.776595   4.360317   4.379157
    21  N    4.506958   4.370499   3.562254   5.276232   3.636606
    22  H    3.535220   3.546873   2.864460   4.504847   2.623684
    23  C    5.556047   5.615665   4.876292   6.559648   4.483348
    24  N    5.574969   5.941467   5.381432   6.935573   4.324973
    25  H    4.844061   5.386051   4.968429   6.389729   3.536628
    26  H    6.522579   6.936119   6.384681   7.932518   5.241888
    27  N    6.814569   6.752208   5.930045   7.652971   5.792665
    28  C    7.129355   6.813840   5.888220   7.616602   6.297990
    29  H    9.232737   8.912898   7.974385   9.694897   8.362713
                   11         12         13         14         15
    11  C    0.000000
    12  O    1.239555   0.000000
    13  H    2.112389   2.510195   0.000000
    14  N    8.343498   7.987409  10.377493   0.000000
[...]
 Alpha virt. eigenvalues --    0.32317   0.33382   0.34316   0.35678   0.37941
 Alpha virt. eigenvalues --    0.38138   0.39561   0.40017   0.43667   0.46736
 Alpha virt. eigenvalues --    0.47299   0.48215   0.49671   0.50309   0.51767
 Alpha virt. eigenvalues --    0.53447   0.54797   0.55438   0.55579   0.56252
 Alpha virt. eigenvalues --    0.57053   0.57135   0.57698   0.59295   0.61151
 Alpha virt. eigenvalues --    0.61295   0.61520   0.62878   0.63362   0.64267
 Alpha virt. eigenvalues --    0.64306   0.65448   0.65762   0.66945   0.67324
 Alpha virt. eigenvalues --    0.68684   0.70253   0.71382   0.71398   0.73345
 Alpha virt. eigenvalues --    0.73788   0.75229   0.77898   0.78750   0.79191
 Alpha virt. eigenvalues --    0.79377   0.81029   0.81537   0.82179   0.83102
 Alpha virt. eigenvalues --    0.84182   0.85176   0.85311   0.85842   0.86613
 Alpha virt. eigenvalues --    0.88586   0.88755   0.89366   0.90468   0.92183
 Alpha virt. eigenvalues --    0.93540   0.95600   0.97250   0.98561   1.02538
 Alpha virt. eigenvalues --    1.03380   1.03565   1.05156   1.05744   1.06312
 Alpha virt. eigenvalues --    1.07410   1.09113   1.10013   1.12508   1.16027
 Alpha virt. eigenvalues --    1.19848   1.20190   1.21055   1.23473   1.26856
 Alpha virt. eigenvalues --    1.26929   1.28028   1.29613   1.29734   1.32465
 Alpha virt. eigenvalues --    1.32641   1.32913   1.33428   1.35473   1.36087
 Alpha virt. eigenvalues --    1.36265   1.37147   1.38116   1.38166   1.39376
 Alpha virt. eigenvalues --    1.40023   1.41154   1.41791   1.43240   1.44216
 Alpha virt. eigenvalues --    1.46528   1.47868   1.48705   1.49740   1.51569
 Alpha virt. eigenvalues --    1.56544   1.58734   1.60698   1.62815   1.64807
 Alpha virt. eigenvalues --    1.66990   1.70375   1.71431   1.72841   1.75649
 Alpha virt. eigenvalues --    1.78426   1.79412   1.79887   1.81657   1.82802
 Alpha virt. eigenvalues --    1.83681   1.84643   1.87242   1.87597   1.87619
 Alpha virt. eigenvalues --    1.87928   1.89345   1.91715   1.93190   1.94729
 Alpha virt. eigenvalues --    1.96521   1.96701   1.96838   1.97701   1.98357
 Alpha virt. eigenvalues --    1.99658   2.01531   2.04434   2.05581   2.06332
 Alpha virt. eigenvalues --    2.08239   2.09393   2.09920   2.11537   2.13936
 Alpha virt. eigenvalues --    2.16181   2.19572   2.20328   2.22054   2.22540
 Alpha virt. eigenvalues --    2.24019   2.26222   2.27345   2.27891   2.30275
 Alpha virt. eigenvalues --    2.31107   2.33538   2.34808   2.35069   2.35508
 Alpha virt. eigenvalues --    2.37147   2.38462   2.40324   2.40686   2.41847
 Alpha virt. eigenvalues --    2.44260   2.44735   2.45463   2.45699   2.47002
 Alpha virt. eigenvalues --    2.50435   2.50795   2.52403   2.53809   2.55368
 Alpha virt. eigenvalues --    2.55696   2.56038   2.58503   2.58516   2.60739
 Alpha virt. eigenvalues --    2.61582   2.62189   2.64381   2.64574   2.65742
 Alpha virt. eigenvalues --    2.66676   2.69041   2.72317   2.73220   2.73986
 Alpha virt. eigenvalues --    2.75008   2.75619   2.75667   2.77415   2.78036
 Alpha virt. eigenvalues --    2.81058   2.81717   2.85402   2.87366   2.92991
 Alpha virt. eigenvalues --    2.94036   2.98794   3.00116   3.03352   3.05380
 Alpha virt. eigenvalues --    3.06428   3.08748   3.11576   3.12425   3.16953
 Alpha virt. eigenvalues --    3.22136   3.25669   3.29668   3.34286   3.35471
 Alpha virt. eigenvalues --    3.36892   3.40944   3.44113   3.65304   3.66099
 Alpha virt. eigenvalues --    3.67924   3.71266   3.80259   4.01212   4.04492
 Alpha virt. eigenvalues --    4.06586   4.06839   4.10369   4.14470   4.21322
 Alpha virt. eigenvalues --    4.22875   4.29049   4.31559   4.37660   4.38812
 Alpha virt. eigenvalues --    4.40458   4.48067   4.52115   4.59008   4.69981
 Alpha virt. eigenvalues --    4.71691   4.90658
          Condensed to atoms (all electrons):
              1          2          3          4          5          6
     1  N    6.933449   0.321545  -0.043625  -0.028891   0.003613  -0.023336
     2  C    0.321545   4.688319   0.375615   0.587769  -0.037918  -0.027388
     3  H   -0.043625   0.375615   0.569977  -0.031360  -0.004279   0.002960
     4  C   -0.028891   0.587769  -0.031360   4.992743   0.368379   0.430713
     5  H    0.003613  -0.037918  -0.004279   0.368379   0.590108  -0.026255
     6  C   -0.023336  -0.027388   0.002960   0.430713  -0.026255   4.363595
     7  N    0.000077   0.004354  -0.000138  -0.088292  -0.004925   0.363371
     8  H    0.000004  -0.000075   0.000002   0.003836  -0.000044  -0.012712
     9  H    0.000019   0.000250  -0.000003  -0.004182   0.002899  -0.030573
    10  N   -0.098306  -0.019829  -0.000249  -0.049851   0.003953   0.424680
    11  C    0.250944  -0.034680   0.002343  -0.024621   0.000786  -0.018039
    12  O   -0.094937   0.002020  -0.000107   0.000615   0.000005   0.000754
    13  H    0.327898  -0.027215  -0.006469   0.003910  -0.000104   0.000563
    14  N    0.000000   0.000000   0.000000   0.000000   0.000000   0.000000
    15  C    0.000000   0.000000   0.000000   0.000000   0.000000   0.000000
    16  H    0.000000   0.000000   0.000000   0.000000   0.000000   0.000000
    17  N    0.000000   0.000000   0.000000   0.000000   0.000000   0.000000
    18  C    0.000000   0.000000   0.000000   0.000000   0.000000  -0.000008
    19  C    0.000000   0.000000   0.000000   0.000003   0.000000  -0.000150
    20  O    0.000000   0.000000   0.000000  -0.000002   0.000000  -0.000402
    21  N   -0.000024  -0.000002   0.000000  -0.000065   0.000001  -0.000456
    22  H    0.000433   0.000016   0.000001   0.000644  -0.000012  -0.000684
    23  C   -0.000002   0.000000   0.000000   0.000000   0.000000  -0.000026
    24  N   -0.000034   0.000001   0.000000   0.000000   0.000000   0.000004
    25  H    0.000676  -0.000018   0.000000  -0.000006   0.000000   0.000117
    26  H    0.000000   0.000000   0.000000   0.000000   0.000000   0.000000
    27  N    0.000000   0.000000   0.000000   0.000000   0.000000   0.000000
    28  C    0.000000   0.000000   0.000000   0.000000   0.000000   0.000000
    29  H    0.000000   0.000000   0.000000   0.000000   0.000000   0.000000
              7          8          9         10         11         12
     1  N    0.000077   0.000004   0.000019  -0.098306   0.250944  -0.094937
     2  C    0.004354  -0.000075   0.000250  -0.019829  -0.034680   0.002020
     3  H   -0.000138   0.000002  -0.000003  -0.000249   0.002343  -0.000107
     4  C   -0.088292   0.003836  -0.004182  -0.049851  -0.024621   0.000615
     5  H   -0.004925  -0.000044   0.002899   0.003953   0.000786   0.000005
     6  C    0.363371  -0.012712  -0.030573   0.424680  -0.018039   0.000754
     7  N    6.887577   0.255592   0.349269  -0.084725   0.002482  -0.000047
     8  H    0.255592   0.334370  -0.015804  -0.001940  -0.000059  -0.000016
     9  H    0.349269  -0.015804   0.422468   0.004316  -0.000115   0.000001
    10  N   -0.084725  -0.001940   0.004316   7.150744   0.349379  -0.087553
    11  C    0.002482  -0.000059  -0.000115   0.349379   4.202868   0.545606
    12  O   -0.000047  -0.000016   0.000001  -0.087553   0.545606   8.137884
    13  H    0.000020   0.000000  -0.000001   0.005790  -0.010573   0.009148
    14  N    0.000000   0.000000   0.000000   0.000000   0.000000   0.000000
    15  C    0.000000   0.000000   0.000000   0.000000   0.000000   0.000000
    16  H    0.000000   0.000000   0.000000   0.000000   0.000000   0.000000
    17  N    0.000000  -0.000006   0.000000   0.000000   0.000000   0.000000
    18  C   -0.000086   0.001320   0.000002  -0.000004  -0.000001   0.000000
    19  C    0.000798  -0.002055   0.000018   0.000600   0.000027   0.000003
    20  O   -0.036580   0.085628   0.000840  -0.000276   0.000017   0.000000
    21  N    0.001390  -0.003702  -0.000022  -0.035290   0.000183   0.000127
    22  H   -0.003471   0.004396   0.000060   0.071351  -0.000178  -0.000134
    23  C   -0.000001   0.000085   0.000000   0.000173  -0.000134  -0.000177
    24  N    0.000000  -0.000003   0.000000   0.000492   0.000035  -0.023675
    25  H   -0.000003  -0.000003   0.000000  -0.001607  -0.000308   0.065340
    26  H    0.000000   0.000000   0.000000  -0.000003   0.000028   0.000378
    27  N    0.000000   0.000000   0.000000  -0.000014  -0.000002  -0.000001
    28  C    0.000002  -0.000044   0.000000  -0.000003   0.000000   0.000000
    29  H    0.000000   0.000000   0.000000   0.000000   0.000000   0.000000
             13         14         15         16         17         18
     1  N    0.327898   0.000000   0.000000   0.000000   0.000000   0.000000
     2  C   -0.027215   0.000000   0.000000   0.000000   0.000000   0.000000
     3  H   -0.006469   0.000000   0.000000   0.000000   0.000000   0.000000
     4  C    0.003910   0.000000   0.000000   0.000000   0.000000   0.000000
     5  H   -0.000104   0.000000   0.000000   0.000000   0.000000   0.000000
     6  C    0.000563   0.000000   0.000000   0.000000   0.000000  -0.000008
     7  N    0.000020   0.000000   0.000000   0.000000   0.000000  -0.000086
     8  H    0.000000   0.000000   0.000000   0.000000  -0.000006   0.001320
     9  H   -0.000001   0.000000   0.000000   0.000000   0.000000   0.000002
    10  N    0.005790   0.000000   0.000000   0.000000   0.000000  -0.000004
    11  C   -0.010573   0.000000   0.000000   0.000000   0.000000  -0.000001
    12  O    0.009148   0.000000   0.000000   0.000000   0.000000   0.000000
    13  H    0.413016   0.000000   0.000000   0.000000   0.000000   0.000000
    14  N    0.000000   6.917153   0.325958  -0.057486  -0.070177  -0.073957
    15  C    0.000000   0.325958   4.671377   0.391465   0.541154  -0.095343
    16  H    0.000000  -0.057486   0.391465   0.583515  -0.037007   0.004295
    17  N    0.000000  -0.070177   0.541154  -0.037007   6.790766   0.375834
    18  C    0.000000  -0.073957  -0.095343   0.004295   0.375834   5.067190
    19  C    0.000000   0.005427   0.006966  -0.000200  -0.055734   0.388313
    20  O    0.000000  -0.000047   0.000130   0.000001   0.000201  -0.069366
    21  N    0.000001   0.000354  -0.000153   0.000003   0.002926  -0.088939
    22  H   -0.000017   0.000011   0.000002   0.000000  -0.000052   0.004655
    23  C    0.000000  -0.000176   0.000065   0.000003   0.000654  -0.014889
    24  N    0.000003  -0.000120   0.000001   0.000000   0.000003   0.000671
    25  H   -0.000043   0.000001   0.000000   0.000000   0.000000  -0.000046
    26  H    0.000000  -0.000020   0.000000   0.000000  -0.000001   0.000060
    27  N    0.000000  -0.069273   0.003772  -0.000059   0.007395  -0.057155
    28  C    0.000000   0.272438  -0.090757   0.004625  -0.071521   0.413583
    29  H    0.000000   0.335481  -0.023586   0.000235   0.003903   0.010316
             19         20         21         22         23         24
     1  N    0.000000   0.000000  -0.000024   0.000433  -0.000002  -0.000034
     2  C    0.000000   0.000000  -0.000002   0.000016   0.000000   0.000001
     3  H    0.000000   0.000000   0.000000   0.000001   0.000000   0.000000
     4  C    0.000003  -0.000002  -0.000065   0.000644   0.000000   0.000000
     5  H    0.000000   0.000000   0.000001  -0.000012   0.000000   0.000000
     6  C   -0.000150  -0.000402  -0.000456  -0.000684  -0.000026   0.000004
     7  N    0.000798  -0.036580   0.001390  -0.003471  -0.000001   0.000000
     8  H   -0.002055   0.085628  -0.003702   0.004396   0.000085  -0.000003
     9  H    0.000018   0.000840  -0.000022   0.000060   0.000000   0.000000
    10  N    0.000600  -0.000276  -0.035290   0.071351   0.000173   0.000492
    11  C    0.000027   0.000017   0.000183  -0.000178  -0.000134   0.000035
    12  O    0.000003   0.000000   0.000127  -0.000134  -0.000177  -0.023675
    13  H    0.000000   0.000000   0.000001  -0.000017   0.000000   0.000003
    14  N    0.005427  -0.000047   0.000354   0.000011  -0.000176  -0.000120
    15  C    0.006966   0.000130  -0.000153   0.000002   0.000065   0.000001
    16  H   -0.000200   0.000001   0.000003   0.000000   0.000003   0.000000
    17  N   -0.055734   0.000201   0.002926  -0.000052   0.000654   0.000003
    18  C    0.388313  -0.069366  -0.088939   0.004655  -0.014889   0.000671
    19  C    4.429782   0.513720   0.254303  -0.008716  -0.029602   0.001086
    20  O    0.513720   8.165783  -0.090372   0.003217   0.002608  -0.000049
    21  N    0.254303  -0.090372   7.202252   0.265052   0.307964  -0.080667
    22  H   -0.008716   0.003217   0.265052   0.344806  -0.013007  -0.004147
    23  C   -0.029602   0.002608   0.307964  -0.013007   4.225623   0.349826
    24  N    0.001086  -0.000049  -0.080667  -0.004147   0.349826   6.897328
    25  H    0.000017  -0.000009  -0.003962   0.003026  -0.014554   0.291275
    26  H   -0.000014   0.000001   0.005294  -0.000010  -0.019181   0.339459
    27  N   -0.023986   0.000040  -0.074174   0.002601   0.539976  -0.087322
    28  C   -0.065910   0.003062  -0.013510   0.000562  -0.058195  -0.001384
    29  H    0.000009   0.000001   0.000034   0.000000  -0.000070  -0.000008
             25         26         27         28         29
     1  N    0.000676   0.000000   0.000000   0.000000   0.000000
     2  C   -0.000018   0.000000   0.000000   0.000000   0.000000
     3  H    0.000000   0.000000   0.000000   0.000000   0.000000
     4  C   -0.000006   0.000000   0.000000   0.000000   0.000000
     5  H    0.000000   0.000000   0.000000   0.000000   0.000000
     6  C    0.000117   0.000000   0.000000   0.000000   0.000000
     7  N   -0.000003   0.000000   0.000000   0.000002   0.000000
     8  H   -0.000003   0.000000   0.000000  -0.000044   0.000000
     9  H    0.000000   0.000000   0.000000   0.000000   0.000000
    10  N   -0.001607  -0.000003  -0.000014  -0.000003   0.000000
    11  C   -0.000308   0.000028  -0.000002   0.000000   0.000000
    12  O    0.065340   0.000378  -0.000001   0.000000   0.000000
    13  H   -0.000043   0.000000   0.000000   0.000000   0.000000
    14  N    0.000001  -0.000020  -0.069273   0.272438   0.335481
    15  C    0.000000   0.000000   0.003772  -0.090757  -0.023586
    16  H    0.000000   0.000000  -0.000059   0.004625   0.000235
    17  N    0.000000  -0.000001   0.007395  -0.071521   0.003903
    18  C   -0.000046   0.000060  -0.057155   0.413583   0.010316
    19  C    0.000017  -0.000014  -0.023986  -0.065910   0.000009
    20  O   -0.000009   0.000001   0.000040   0.003062   0.000001
    21  N   -0.003962   0.005294  -0.074174  -0.013510   0.000034
    22  H    0.003026  -0.000010   0.002601   0.000562   0.000000
    23  C   -0.014554  -0.019181   0.539976  -0.058195  -0.000070
    24  N    0.291275   0.339459  -0.087322  -0.001384  -0.000008
    25  H    0.352700  -0.018340   0.002631  -0.000015   0.000000
    26  H   -0.018340   0.412172   0.003861   0.000580   0.000005
    27  N    0.002631   0.003861   6.951247   0.398181   0.001922
    28  C   -0.000015   0.000580   0.398181   4.722333  -0.026462
    29  H    0.000000   0.000005   0.001922  -0.026462   0.432472
 Mulliken atomic charges:
              1
     1  N   -0.549502
     2  C    0.167235
     3  H    0.135333
     4  C   -0.161343
     5  H    0.103791
     6  C    0.553274
     7  N   -0.646666
     8  H    0.351231
     9  H    0.270557
    10  N   -0.631830
    11  C    0.734010
    12  O   -0.555232
    13  H    0.284073
    14  N   -0.585567
    15  C    0.268949
    16  H    0.110610
    17  N   -0.488339
    18  C    0.133553
    19  C    0.585292
    20  O   -0.578146
    21  N   -0.648546
    22  H    0.329595
    23  C    0.723039
    24  N   -0.682776
    25  H    0.323132
    26  H    0.275728
    27  N   -0.599640
    28  C    0.512436
    29  H    0.265748
 Sum of Mulliken atomic charges =   0.00000
 Mulliken charges with hydrogens summed into heavy atoms:
              1
     1  N   -0.265430
     2  C    0.302568
     4  C   -0.057551
     6  C    0.553274
     7  N   -0.024878
    10  N   -0.631830
    11  C    0.734010
    12  O   -0.555232
    14  N   -0.319819
    15  C    0.379559
    17  N   -0.488339
    18  C    0.133553
    19  C    0.585292
    20  O   -0.578146
    21  N   -0.318951
    23  C    0.723039
    24  N   -0.083916
    27  N   -0.599640
    28  C    0.512436
 Sum of Mulliken charges with hydrogens summed into heavy atoms =   0.00000
 Electronic spatial extent (au):  <R**2>=           6108.9802
 Charge=              0.0000 electrons
 Dipole moment (field-independent basis, Debye):
    X=              5.9706    Y=              1.2448    Z=             -0.0343  Tot=              6.0991
 Quadrupole moment (field-independent basis, Debye-Ang):
   XX=            -54.3152   YY=           -106.6980   ZZ=           -110.1227
   XY=            -17.5945   XZ=              0.0061   YZ=             -0.0982
 Traceless Quadrupole moment (field-independent basis, Debye-Ang):
   XX=             36.0635   YY=            -16.3193   ZZ=            -19.7441
   XY=            -17.5945   XZ=              0.0061   YZ=             -0.0982
 Octapole moment (field-independent basis, Debye-Ang**2):
  XXX=             79.3769  YYY=              7.4991  ZZZ=             -0.0347  XYY=             52.5758
  XXY=             33.1286  XXZ=             -0.7762  XZZ=              1.4556  YZZ=              2.5929
  YYZ=             -0.1275  XYZ=              0.0156
 Hexadecapole moment (field-independent basis, Debye-Ang**3):
 XXXX=          -4189.5778 YYYY=          -1316.1079 ZZZZ=            -99.6548 XXXY=            -96.6009
 XXXZ=             -0.1815 YYYX=           -175.0701 YYYZ=             -0.9535 ZZZX=             -0.1278
 ZZZY=             -0.2189 XXYY=          -1253.3932 XXZZ=          -1148.3143 YYZZ=           -275.9110
 XXYZ=             -0.8253 YYXZ=              0.2530 ZZXY=             13.5231
 N-N= 1.387507938353D+03 E-N=-4.961820840978D+03  KE= 9.289958141991D+02
 1\1\GINC-NODE46\FOpt\RB3LYP\6-31G(d,p)\C9H10N8O2\DULIKAI\16-Dec-2013\0
 \\# opt(maxcyc=1000) b3lyp/6-31G**\\Title Card Required\\0,1\N,12.0108
 791018,8.4757534285,-9.9363249698\C,11.480845162,7.9626896147,-11.0800
 400695\H,11.9747708208,8.2305435286,-12.0075284805\C,10.3892377237,7.1
 602538401,-11.0266607758\H,9.9525673668,6.7424501258,-11.9243453104\C,
 9.8371739999,6.8895444835,-9.7195318099\N,8.7619711738,6.108293565,-9.
 5852577688\H,8.3613200822,5.9143875344,-8.6471247806\H,8.3289246648,5.
 704036954,-10.3994240039\N,10.3760179042,7.4051209149,-8.6069663048\C,
 11.4697375597,8.20965995,-8.6611542629\O,12.016578757,8.7188496623,-7.
 6779895997\H,12.8233271048,9.0761751199,-9.9490239903\N,7.5603279153,5
 .9990021805,-2.4909876634\C,6.5224255623,5.192995119,-2.9349444681\H,5
 .8157170436,4.7528625349,-2.2445715417\N,6.5121676024,5.0434590432,-4.
 232428089\C,7.5954758696,5.7855926453,-4.673793725\C,8.10348489,6.0126
 782253,-5.9919417519\O,7.6736148892,5.5814928309,-7.0729987317\N,9.239
 6463782,6.8443967199,-5.9657340956\H,9.6587068707,7.0528325274,-6.8875
 669338\C,9.8152270097,7.3868815449,-4.840367807\N,10.9063565526,8.1579
 85512,-5.030419295\H,11.2954955641,8.3577447986,-5.9542082136\H,11.319
 7781474,8.5628733581,-4.2075343346\N,9.3532085771,7.1843006244,-3.6136
 009019\C,8.2632157403,6.3901249198,-3.6024999276\H,7.7770566561,6.2608
 144744,-1.5414727933\\Version=AM64L-G09RevB.01\State=1-A\HF=-937.55497
 87\RMSD=2.995e-09\RMSF=6.618e-06\Dipole=1.4055658,0.8631123,-1.7427807
 \Quadrupole=-12.7170178,-14.8156023,27.5326202,0.2945585,-11.3148313,-
 3.7641543\PG=C01 [X(C9H10N8O2)]\\@


 MAN IS A SINGULAR CREATURE.  HE HAS A SET OF GIFTS
 WHICH MAKE HIM UNIQUE AMONG THE ANIMALS: SO THAT, 
 UNLIKE THEM, HE IS NOT A FIGURE IN THE LANDSCAPE --
 HE IS A SHAPER OF THE LANDSCAPE.

                       -- JACOB BRONOWSKI
 Job cpu time:  0 days  3 hours 52 minutes 47.3 seconds.
 File lengths (MBytes):  RWF=     77 Int=      0 D2E=      0 Chk=      9 Scr=      1
 Normal termination of Gaussian 09 at Mon Dec 16 18:24:38 2013.
