 Entering Gaussian System, Link 0=g09
 Input=freq.gjf
 Output=freq.log
 Initial command:
 /opt/Gaussian/g09/l1.exe /tmp/dulikai/Gau-18760.inp -scrdir=/tmp/dulikai/
 Entering Link 1 = /opt/Gaussian/g09/l1.exe PID=     18761.
  
 Copyright (c) 1988,1990,1992,1993,1995,1998,2003,2009,2010,
            Gaussian, Inc.  All Rights Reserved.
  
 This is part of the Gaussian(R) 09 program.  It is based on
 the Gaussian(R) 03 system (copyright 2003, Gaussian, Inc.),
 the Gaussian(R) 98 system (copyright 1998, Gaussian, Inc.),
 the Gaussian(R) 94 system (copyright 1995, Gaussian, Inc.),
 the Gaussian 92(TM) system (copyright 1992, Gaussian, Inc.),
 the Gaussian 90(TM) system (copyright 1990, Gaussian, Inc.),
 the Gaussian 88(TM) system (copyright 1988, Gaussian, Inc.),
 the Gaussian 86(TM) system (copyright 1986, Carnegie Mellon
 University), and the Gaussian 82(TM) system (copyright 1983,
 Carnegie Mellon University). Gaussian is a federally registered
 trademark of Gaussian, Inc.
  
 This software contains proprietary and confidential information,
 including trade secrets, belonging to Gaussian, Inc.
  
 This software is provided under written license and may be
 used, copied, transmitted, or stored only in accord with that
 written license.
  
 The following legend is applicable only to US Government
 contracts under FAR:
  
                    RESTRICTED RIGHTS LEGEND
  
 Use, reproduction and disclosure by the US Government is
 subject to restrictions as set forth in subparagraphs (a)
 and (c) of the Commercial Computer Software - Restricted
 Rights clause in FAR 52.227-19.
  
 Gaussian, Inc.
 340 Quinnipiac St., Bldg. 40, Wallingford CT 06492
  
  
 ---------------------------------------------------------------
 Warning -- This program may not be used in any manner that
 competes with the business of Gaussian, Inc. or will provide
 assistance to any competitor of Gaussian, Inc.  The licensee
 of this program is prohibited from giving any competitor of
 Gaussian, Inc. access to this program.  By using this program,
 the user acknowledges that Gaussian, Inc. is engaged in the
 business of creating and licensing software in the field of
 computational chemistry and represents and warrants to the
 licensee that it is not a competitor of Gaussian, Inc. and that
 it will not use this program in any manner prohibited above.
 ---------------------------------------------------------------
  

 Cite this work as:
 Gaussian 09, Revision B.01,
 M. J. Frisch, G. W. Trucks, H. B. Schlegel, G. E. Scuseria, 
 M. A. Robb, J. R. Cheeseman, G. Scalmani, V. Barone, B. Mennucci, 
 G. A. Petersson, H. Nakatsuji, M. Caricato, X. Li, H. P. Hratchian, 
 A. F. Izmaylov, J. Bloino, G. Zheng, J. L. Sonnenberg, M. Hada, 
 M. Ehara, K. Toyota, R. Fukuda, J. Hasegawa, M. Ishida, T. Nakajima, 
 Y. Honda, O. Kitao, H. Nakai, T. Vreven, J. A. Montgomery, Jr., 
 J. E. Peralta, F. Ogliaro, M. Bearpark, J. J. Heyd, E. Brothers, 
 K. N. Kudin, V. N. Staroverov, T. Keith, R. Kobayashi, J. Normand, 
 K. Raghavachari, A. Rendell, J. C. Burant, S. S. Iyengar, J. Tomasi, 
 M. Cossi, N. Rega, J. M. Millam, M. Klene, J. E. Knox, J. B. Cross, 
 V. Bakken, C. Adamo, J. Jaramillo, R. Gomperts, R. E. Stratmann, 
 O. Yazyev, A. J. Austin, R. Cammi, C. Pomelli, J. W. Ochterski, 
 R. L. Martin, K. Morokuma, V. G. Zakrzewski, G. A. Voth, 
 P. Salvador, J. J. Dannenberg, S. Dapprich, A. D. Daniels, 
 O. Farkas, J. B. Foresman, J. V. Ortiz, J. Cioslowski, 
 and D. J. Fox, Gaussian, Inc., Wallingford CT, 2010.
 
 ******************************************
 Gaussian 09:  AM64L-G09RevB.01 12-Aug-2010
                17-Dec-2013 
 ******************************************
 %chk=base.chk
 %nproc=8
 Will use up to    8 processors via shared memory.
 %mem=8GB
 ----------------------------------------------
 # freq=(hpmode) opt(maxcyc=1000) b3lyp/6-31G**
 ----------------------------------------------
 1/6=1000,14=-1,18=20,19=15,26=3,38=1/1,3;
 2/9=110,12=2,17=6,18=5,40=1/2;
 3/5=1,6=6,7=101,11=2,16=1,25=1,30=1,71=1,74=-5/1,2,3;
 4//1;
 5/5=2,38=5/2;
 6/7=2,8=2,9=2,10=2,28=1/1;
 7//1,2,3,16;
 1/6=1000,14=-1,18=20,19=15/3(2);
 2/9=110/2;
 99//99;
 2/9=110/2;
 3/5=1,6=6,7=101,11=2,16=1,25=1,30=1,71=1,74=-5/1,2,3;
 4/5=5,16=3/1;
 5/5=2,38=5/2;
 7//1,2,3,16;
 1/6=1000,14=-1,18=20,19=15/3(-5);
 2/9=110/2;
 6/7=2,8=2,9=2,10=2,19=2,28=1/1;
 99/9=1/99;
 -------------------
 Title Card Required
 -------------------
 Symbolic Z-matrix:
 Charge =  0 Multiplicity = 1
 N                     4.34371   0.90479  -0.00821 
 C                     4.94151  -0.31787  -0.00627 
 H                     6.02586  -0.32878  -0.00944 
 C                     4.18907  -1.44577  -0.00073 
 H                     4.64491  -2.42724   0.00075 
 C                     2.75439  -1.27742   0.00289 
 N                     1.94612  -2.34095   0.00799 
 H                     0.91448  -2.22284   0.00766 
 H                     2.33605  -3.26927   0.00786 
 N                     2.18778  -0.06378   0.00146 
 C                     2.94241   1.06624  -0.00459 
 O                     2.48789   2.21442  -0.00723 
 H                     4.88155   1.76004  -0.01259 
 N                    -4.66776   0.49471  -0.00673 
 C                    -4.97352  -0.85825  -0.00913 
 H                    -5.99815  -1.2045   -0.01328 
 N                    -3.913    -1.62063  -0.00589 
 C                    -2.84976  -0.73259  -0.00102 
 C                    -1.43707  -0.95939   0.00349 
 O                    -0.82558  -2.03896   0.00406 
 N                    -0.72428   0.2552    0.00749 
 H                     0.30568   0.1656    0.00839 
 C                    -1.278     1.51434   0.0072 
 N                    -0.41746   2.55391   0.01488 
 H                     0.5981    2.43882   0.00494 
 H                    -0.82375   3.47412   0.00367 
 N                    -2.58556   1.73727   0.00232 
 C                    -3.29926   0.59292  -0.00144 
 H                    -5.3087    1.27336  -0.00815 
 

 GradGradGradGradGradGradGradGradGradGradGradGradGradGradGradGradGradGrad
 Berny optimization.
 Initialization pass.
                           ----------------------------
                           !    Initial Parameters    !
                           ! (Angstroms and Degrees)  !
 --------------------------                            --------------------------
 ! Name  Definition              Value          Derivative Info.                !
 --------------------------------------------------------------------------------
 ! R1    R(1,2)                  1.361          estimate D2E/DX2                !
 ! R2    R(1,11)                 1.4106         estimate D2E/DX2                !
 ! R3    R(1,13)                 1.0103         estimate D2E/DX2                !
 ! R4    R(2,3)                  1.0844         estimate D2E/DX2                !
 ! R5    R(2,4)                  1.3559         estimate D2E/DX2                !
 ! R6    R(4,5)                  1.0822         estimate D2E/DX2                !
 ! R7    R(4,6)                  1.4445         estimate D2E/DX2                !
 ! R8    R(6,7)                  1.3358         estimate D2E/DX2                !
 ! R9    R(6,10)                 1.3394         estimate D2E/DX2                !
 ! R10   R(7,8)                  1.0384         estimate D2E/DX2                !
 ! R11   R(7,9)                  1.0069         estimate D2E/DX2                !
 ! R12   R(8,20)                 1.7498         estimate D2E/DX2                !
 ! R13   R(10,11)                1.3588         estimate D2E/DX2                !
 ! R14   R(10,22)                1.896          estimate D2E/DX2                !
 ! R15   R(11,12)                1.2349         estimate D2E/DX2                !
 ! R16   R(12,25)                1.9031         estimate D2E/DX2                !
 ! R17   R(14,15)                1.3871         estimate D2E/DX2                !
 ! R18   R(14,28)                1.372          estimate D2E/DX2                !
 ! R19   R(14,29)                1.0085         estimate D2E/DX2                !
 ! R20   R(15,16)                1.0816         estimate D2E/DX2                !
 ! R21   R(15,17)                1.3061         estimate D2E/DX2                !
 ! R22   R(17,18)                1.3853         estimate D2E/DX2                !
 ! R23   R(18,19)                1.4308         estimate D2E/DX2                !
 ! R24   R(18,28)                1.3996         estimate D2E/DX2                !
 ! R25   R(19,20)                1.2407         estimate D2E/DX2                !
 ! R26   R(19,21)                1.4083         estimate D2E/DX2                !
 ! R27   R(21,22)                1.0338         estimate D2E/DX2                !
 ! R28   R(21,23)                1.3755         estimate D2E/DX2                !
 ! R29   R(23,24)                1.3496         estimate D2E/DX2                !
 ! R30   R(23,27)                1.3264         estimate D2E/DX2                !
 ! R31   R(24,25)                1.0221         estimate D2E/DX2                !
 ! R32   R(24,26)                1.006          estimate D2E/DX2                !
 ! R33   R(27,28)                1.3487         estimate D2E/DX2                !
 ! A1    A(2,1,11)             122.6277         estimate D2E/DX2                !
 ! A2    A(2,1,13)             121.7796         estimate D2E/DX2                !
 ! A3    A(11,1,13)            115.5927         estimate D2E/DX2                !
 ! A4    A(1,2,3)              116.6318         estimate D2E/DX2                !
 ! A5    A(1,2,4)              120.2367         estimate D2E/DX2                !
 ! A6    A(3,2,4)              123.1316         estimate D2E/DX2                !
 ! A7    A(2,4,5)              121.3797         estimate D2E/DX2                !
 ! A8    A(2,4,6)              117.0153         estimate D2E/DX2                !
 ! A9    A(5,4,6)              121.605          estimate D2E/DX2                !
 ! A10   A(4,6,7)              120.5421         estimate D2E/DX2                !
 ! A11   A(4,6,10)             121.719          estimate D2E/DX2                !
 ! A12   A(7,6,10)             117.739          estimate D2E/DX2                !
 ! A13   A(6,7,8)              120.7033         estimate D2E/DX2                !
 ! A14   A(6,7,9)              119.9805         estimate D2E/DX2                !
 ! A15   A(8,7,9)              119.3156         estimate D2E/DX2                !
 ! A16   A(6,10,11)            121.2383         estimate D2E/DX2                !
 ! A17   A(6,10,22)            121.9744         estimate D2E/DX2                !
 ! A18   A(11,10,22)           116.7873         estimate D2E/DX2                !
 ! A19   A(1,11,10)            117.1632         estimate D2E/DX2                !
 ! A20   A(1,11,12)            118.1689         estimate D2E/DX2                !
 ! A21   A(10,11,12)           124.6679         estimate D2E/DX2                !
 ! A22   A(11,12,25)           118.3671         estimate D2E/DX2                !
 ! A23   A(15,14,28)           106.8393         estimate D2E/DX2                !
 ! A24   A(15,14,29)           127.8064         estimate D2E/DX2                !
 ! A25   A(28,14,29)           125.3543         estimate D2E/DX2                !
 ! A26   A(14,15,16)           121.4057         estimate D2E/DX2                !
 ! A27   A(14,15,17)           112.9767         estimate D2E/DX2                !
 ! A28   A(16,15,17)           125.6177         estimate D2E/DX2                !
 ! A29   A(15,17,18)           104.4196         estimate D2E/DX2                !
 ! A30   A(17,18,19)           131.0102         estimate D2E/DX2                !
 ! A31   A(17,18,28)           111.1367         estimate D2E/DX2                !
 ! A32   A(19,18,28)           117.8531         estimate D2E/DX2                !
 ! A33   A(18,19,20)           128.6488         estimate D2E/DX2                !
 ! A34   A(18,19,21)           111.2866         estimate D2E/DX2                !
 ! A35   A(20,19,21)           120.0646         estimate D2E/DX2                !
 ! A36   A(8,20,19)            125.5608         estimate D2E/DX2                !
 ! A37   A(19,21,22)           115.4352         estimate D2E/DX2                !
 ! A38   A(19,21,23)           125.8548         estimate D2E/DX2                !
 ! A39   A(22,21,23)           118.7099         estimate D2E/DX2                !
 ! A40   A(21,23,24)           116.6443         estimate D2E/DX2                !
 ! A41   A(21,23,27)           123.4136         estimate D2E/DX2                !
 ! A42   A(24,23,27)           119.942          estimate D2E/DX2                !
 ! A43   A(23,24,25)           123.1453         estimate D2E/DX2                !
 ! A44   A(23,24,26)           116.5542         estimate D2E/DX2                !
 ! A45   A(25,24,26)           120.2772         estimate D2E/DX2                !
 ! A46   A(23,27,28)           112.2749         estimate D2E/DX2                !
 ! A47   A(14,28,18)           104.6277         estimate D2E/DX2                !
 ! A48   A(14,28,27)           126.0553         estimate D2E/DX2                !
 ! A49   A(18,28,27)           129.3169         estimate D2E/DX2                !
 ! A50   L(7,8,20,6,-1)        180.4977         estimate D2E/DX2                !
 ! A51   L(10,22,21,19,-1)     178.022          estimate D2E/DX2                !
 ! A52   L(12,25,24,23,-1)     179.6961         estimate D2E/DX2                !
 ! A53   L(7,8,20,6,-2)        179.8135         estimate D2E/DX2                !
 ! A54   L(10,22,21,19,-2)     180.3968         estimate D2E/DX2                !
 ! A55   L(12,25,24,23,-2)     179.6425         estimate D2E/DX2                !
 ! D1    D(11,1,2,3)           179.9983         estimate D2E/DX2                !
 ! D2    D(11,1,2,4)             0.0034         estimate D2E/DX2                !
 ! D3    D(13,1,2,3)             0.0132         estimate D2E/DX2                !
 ! D4    D(13,1,2,4)          -179.9817         estimate D2E/DX2                !
 ! D5    D(2,1,11,10)            0.0204         estimate D2E/DX2                !
 ! D6    D(2,1,11,12)         -179.9738         estimate D2E/DX2                !
 ! D7    D(13,1,11,10)        -179.9936         estimate D2E/DX2                !
 ! D8    D(13,1,11,12)           0.0121         estimate D2E/DX2                !
 ! D9    D(1,2,4,5)            179.9909         estimate D2E/DX2                !
 ! D10   D(1,2,4,6)              0.0003         estimate D2E/DX2                !
 ! D11   D(3,2,4,5)             -0.0037         estimate D2E/DX2                !
 ! D12   D(3,2,4,6)           -179.9942         estimate D2E/DX2                !
 ! D13   D(2,4,6,7)            179.9799         estimate D2E/DX2                !
 ! D14   D(2,4,6,10)            -0.0294         estimate D2E/DX2                !
 ! D15   D(5,4,6,7)             -0.0107         estimate D2E/DX2                !
 ! D16   D(5,4,6,10)           179.98           estimate D2E/DX2                !
 ! D17   D(4,6,7,8)           -179.8118         estimate D2E/DX2                !
 ! D18   D(4,6,7,9)             -0.0976         estimate D2E/DX2                !
 ! D19   D(10,6,7,8)             0.1972         estimate D2E/DX2                !
 ! D20   D(10,6,7,9)           179.9114         estimate D2E/DX2                !
 ! D21   D(4,6,10,11)            0.0553         estimate D2E/DX2                !
 ! D22   D(4,6,10,22)         -179.9212         estimate D2E/DX2                !
 ! D23   D(7,6,10,11)         -179.9538         estimate D2E/DX2                !
 ! D24   D(7,6,10,22)            0.0697         estimate D2E/DX2                !
 ! D25   D(6,7,20,19)           -0.3292         estimate D2E/DX2                !
 ! D26   D(9,7,20,19)         -179.9721         estimate D2E/DX2                !
 ! D27   D(6,10,11,1)           -0.0493         estimate D2E/DX2                !
 ! D28   D(6,10,11,12)         179.9445         estimate D2E/DX2                !
 ! D29   D(22,10,11,1)         179.9284         estimate D2E/DX2                !
 ! D30   D(22,10,11,12)         -0.0778         estimate D2E/DX2                !
 ! D31   D(6,10,21,19)          -0.3744         estimate D2E/DX2                !
 ! D32   D(6,10,21,23)         179.9389         estimate D2E/DX2                !
 ! D33   D(11,10,21,19)        179.5422         estimate D2E/DX2                !
 ! D34   D(11,10,21,23)         -0.1445         estimate D2E/DX2                !
 ! D35   D(1,11,12,25)        -179.7499         estimate D2E/DX2                !
 ! D36   D(10,11,12,25)          0.2563         estimate D2E/DX2                !
 ! D37   D(11,12,24,23)         -1.04           estimate D2E/DX2                !
 ! D38   D(11,12,24,26)       -179.3763         estimate D2E/DX2                !
 ! D39   D(28,14,15,16)        179.996          estimate D2E/DX2                !
 ! D40   D(28,14,15,17)         -0.004          estimate D2E/DX2                !
 ! D41   D(29,14,15,16)          0.0173         estimate D2E/DX2                !
 ! D42   D(29,14,15,17)       -179.9827         estimate D2E/DX2                !
 ! D43   D(15,14,28,18)          0.0033         estimate D2E/DX2                !
 ! D44   D(15,14,28,27)        179.9994         estimate D2E/DX2                !
 ! D45   D(29,14,28,18)        179.9826         estimate D2E/DX2                !
 ! D46   D(29,14,28,27)         -0.0213         estimate D2E/DX2                !
 ! D47   D(14,15,17,18)          0.0028         estimate D2E/DX2                !
 ! D48   D(16,15,17,18)       -179.9972         estimate D2E/DX2                !
 ! D49   D(15,17,18,19)       -179.9692         estimate D2E/DX2                !
 ! D50   D(15,17,18,28)         -0.0006         estimate D2E/DX2                !
 ! D51   D(17,18,19,20)          0.0008         estimate D2E/DX2                !
 ! D52   D(17,18,19,21)        179.9949         estimate D2E/DX2                !
 ! D53   D(28,18,19,20)       -179.966          estimate D2E/DX2                !
 ! D54   D(28,18,19,21)          0.028          estimate D2E/DX2                !
 ! D55   D(17,18,28,14)         -0.0018         estimate D2E/DX2                !
 ! D56   D(17,18,28,27)       -179.9977         estimate D2E/DX2                !
 ! D57   D(19,18,28,14)        179.9714         estimate D2E/DX2                !
 ! D58   D(19,18,28,27)         -0.0245         estimate D2E/DX2                !
 ! D59   D(18,19,20,8)         179.9159         estimate D2E/DX2                !
 ! D60   D(21,19,20,8)          -0.0777         estimate D2E/DX2                !
 ! D61   D(18,19,21,22)       -179.8474         estimate D2E/DX2                !
 ! D62   D(18,19,21,23)         -0.0021         estimate D2E/DX2                !
 ! D63   D(20,19,21,22)          0.1472         estimate D2E/DX2                !
 ! D64   D(20,19,21,23)        179.9926         estimate D2E/DX2                !
 ! D65   D(19,21,23,24)        179.8393         estimate D2E/DX2                !
 ! D66   D(19,21,23,27)         -0.0353         estimate D2E/DX2                !
 ! D67   D(22,21,23,24)         -0.32           estimate D2E/DX2                !
 ! D68   D(22,21,23,27)        179.8055         estimate D2E/DX2                !
 ! D69   D(21,23,24,25)          1.0547         estimate D2E/DX2                !
 ! D70   D(21,23,24,26)        179.3008         estimate D2E/DX2                !
 ! D71   D(27,23,24,25)       -179.0661         estimate D2E/DX2                !
 ! D72   D(27,23,24,26)         -0.8201         estimate D2E/DX2                !
 ! D73   D(21,23,27,28)          0.039          estimate D2E/DX2                !
 ! D74   D(24,23,27,28)       -179.8316         estimate D2E/DX2                !
 ! D75   D(23,27,28,14)        179.9946         estimate D2E/DX2                !
 ! D76   D(23,27,28,18)         -0.0103         estimate D2E/DX2                !
 --------------------------------------------------------------------------------
 Trust Radius=3.00D-01 FncErr=1.00D-07 GrdErr=1.00D-06
 Number of steps in this run=    174 maximum allowed number of steps=    174.
 GradGradGradGradGradGradGradGradGradGradGradGradGradGradGradGradGradGrad

                          Input orientation:                          
 ---------------------------------------------------------------------
 Center     Atomic      Atomic             Coordinates (Angstroms)
 Number     Number       Type             X           Y           Z
 ---------------------------------------------------------------------
      1          7           0        4.343706    0.904789   -0.008210
      2          6           0        4.941506   -0.317866   -0.006270
      3          1           0        6.025856   -0.328777   -0.009442
      4          6           0        4.189068   -1.445769   -0.000730
      5          1           0        4.644913   -2.427238    0.000750
      6          6           0        2.754394   -1.277416    0.002885
      7          7           0        1.946116   -2.340949    0.007989
      8          1           0        0.914483   -2.222845    0.007663
      9          1           0        2.336051   -3.269265    0.007858
     10          7           0        2.187782   -0.063776    0.001460
     11          6           0        2.942413    1.066240   -0.004593
     12          8           0        2.487885    2.214421   -0.007225
     13          1           0        4.881549    1.760035   -0.012591
     14          7           0       -4.667764    0.494707   -0.006727
     15          6           0       -4.973517   -0.858251   -0.009134
     16          1           0       -5.998147   -1.204496   -0.013282
     17          7           0       -3.912999   -1.620629   -0.005889
     18          6           0       -2.849759   -0.732586   -0.001024
     19          6           0       -1.437068   -0.959386    0.003487
     20          8           0       -0.825575   -2.038955    0.004063
     21          7           0       -0.724276    0.255199    0.007491
     22          1           0        0.305678    0.165600    0.008392
     23          6           0       -1.277996    1.514336    0.007204
     24          7           0       -0.417463    2.553908    0.014875
     25          1           0        0.598102    2.438815    0.004939
     26          1           0       -0.823754    3.474122    0.003674
     27          7           0       -2.585563    1.737273    0.002319
     28          6           0       -3.299256    0.592917   -0.001435
     29          1           0       -5.308699    1.273357   -0.008150
 ---------------------------------------------------------------------
                    Distance matrix (angstroms):
                    1          2          3          4          5
     1  N    0.000000
     2  C    1.360975   0.000000
     3  H    2.085981   1.084410   0.000000
     4  C    2.355651   1.355861   2.149776   0.000000
     5  H    3.345625   2.130133   2.512100   1.082164   0.000000
     6  C    2.699640   2.388363   3.406249   1.444523   2.212726
     7  N    4.035284   3.614613   4.549002   2.415007   2.700186
     8  H    4.641327   4.454891   5.451048   3.365535   3.736032
     9  H    4.631810   3.936922   4.718202   2.599785   2.457622
    10  N    2.363519   2.765433   3.847227   2.432089   3.409318
    11  C    1.410568   2.431486   3.384334   2.804345   3.886248
    12  O    2.271389   3.526008   4.357189   4.036218   5.118382
    13  H    1.010317   2.078775   2.381719   3.279764   4.193975
    14  N    9.020796   9.643565  10.725281   9.066915   9.760316
    15  C    9.482561   9.929738  11.012109   9.181406   9.745564
    16  H   10.554763  10.975526  12.055851  10.190079  10.713077
    17  N    8.634287   8.949830  10.022461   8.103955   8.595843
    18  C    7.377465   7.802296   8.884800   7.074865   7.683876
    19  C    6.073931   6.410760   7.489531   5.647122   6.256604
    20  O    5.948718   6.018428   7.061657   5.049608   5.484251
    21  N    5.109467   5.694706   6.775367   5.199453   6.001975
    22  H    4.105161   4.660993   5.741530   4.204439   5.054882
    23  C    5.654672   6.483776   7.532835   6.216999   7.114555
    24  N    5.038736   6.079974   7.058812   6.100638   7.102089
    25  H    4.047587   5.144373   6.092642   5.290091   6.328915
    26  H    5.770984   6.900543   7.834499   7.023797   8.045643
    27  N    6.979105   7.802592   8.855803   7.485145   8.344036
    28  C    7.649325   8.290941   9.370555   7.760879   8.498892
    29  H    9.659439  10.372979  11.447226   9.879336  10.619269
                    6          7          8          9         10
     6  C    0.000000
     7  N    1.335830   0.000000
     8  H    2.068606   1.038371   0.000000
     9  H    2.035313   1.006886   1.765177   0.000000
    10  N    1.339393   2.289970   2.506573   3.208923   0.000000
    11  C    2.351198   3.549888   3.864030   4.377720   1.358838
    12  O    3.502007   4.587498   4.707987   5.485808   2.297894
    13  H    3.708252   5.043338   5.621508   5.636829   3.253132
    14  N    7.630789   7.196150   6.208605   7.951171   6.878261
    15  C    7.739280   7.076723   6.044083   7.696951   7.205242
    16  H    8.752860   8.025166   6.987269   8.586185   8.265040
    17  N    6.676227   5.903243   4.864918   6.462880   6.296298
    18  C    5.630576   5.058392   4.048514   5.772993   5.081745
    19  C    4.203510   3.654404   2.669483   4.424024   3.733853
    20  O    3.660071   2.788097   1.749752   3.392574   3.603007
    21  N    3.801325   3.724376   2.970898   4.667703   2.929482
    22  H    2.842276   2.995634   2.464815   3.990077   1.896042
    23  C    4.904495   5.025746   4.332838   5.995346   3.808161
    24  N    4.973918   5.435640   4.958982   6.441369   3.693203
    25  H    4.296507   4.966215   4.672385   5.966796   2.964803
    26  H    5.948131   6.441060   5.956250   7.446990   4.646082
    27  N    6.132169   6.096560   5.285157   7.020523   5.101823
    28  C    6.335996   6.010124   5.067958   6.831780   5.526196
    29  H    8.456952   8.105295   7.138044   8.892574   7.614804
                   11         12         13         14         15
    11  C    0.000000
    12  O    1.234877   0.000000
    13  H    2.059530   2.436416   0.000000
    14  N    7.631609   7.359397   9.632781   0.000000
    15  C    8.146511   8.069315  10.196949   1.387078   0.000000
    16  H    9.224420   9.148867  11.276357   2.158067   1.081559
    17  N    7.363147   7.461831   9.421943   2.245956   1.306112
    18  C    6.065068   6.097158   8.123202   2.193496   2.127488
    19  C    4.825254   5.047615   6.878985   3.542864   3.537917
    20  O    4.882627   5.391693   6.855937   4.602388   4.312732
    21  N    3.755335   3.762545   5.804327   3.950780   4.392732
    22  H    2.786340   2.993316   4.845746   4.984342   5.377590
    23  C    4.244147   3.830429   6.164475   3.539825   4.391618
    24  N    3.674548   2.925199   5.358220   4.722905   5.692191
    25  H    2.716587   1.903098   4.336931   5.613291   6.474085
    26  H    4.470121   3.543151   5.957251   4.863480   5.999179
    27  N    5.568559   5.095845   7.467162   2.424791   3.526925
    28  C    6.259591   6.010017   8.263647   1.372038   2.215648
    29  H    8.253712   7.853173  10.201864   1.008512   2.157800
                   16         17         18         19         20
    16  H    0.000000
    17  N    2.126279   0.000000
    18  C    3.183582   1.385324   0.000000
    19  C    4.567691   2.562726   1.430788   0.000000
    20  O    5.239477   3.115651   2.409138   1.240723   0.000000
    21  N    5.472189   3.699576   2.343815   1.408299   2.296392
    22  H    6.451034   4.581272   3.280794   2.074315   2.477865
    23  C    5.447228   4.095292   2.742110   2.478834   3.581979
    24  N    6.728330   5.444811   4.088687   3.658273   4.610972
    25  H    7.535552   6.068710   4.684609   3.961021   4.698647
    26  H    6.975966   5.958189   4.669166   4.475729   5.513077
    27  N    4.505550   3.610770   2.483951   2.931043   4.166228
    28  C    3.242660   2.297060   1.399645   2.424338   3.611908
    29  H    2.571988   3.212964   3.173365   4.469318   5.574043
                   21         22         23         24         25
    21  N    0.000000
    22  H    1.033844   0.000000
    23  C    1.375512   2.080172   0.000000
    24  N    2.319106   2.495394   1.349550   0.000000
    25  H    2.552816   2.291949   2.091509   1.022114   0.000000
    26  H    3.220462   3.495992   2.011743   1.005978   1.758845
    27  N    2.379277   3.290816   1.326445   2.316831   3.260045
    28  C    2.597047   3.630185   2.221391   3.485754   4.312398
    29  H    4.696150   5.722642   4.037929   5.056138   6.020694
                   26         27         28         29
    26  H    0.000000
    27  N    2.473988   0.000000
    28  C    3.798615   1.348674   0.000000
    29  H    4.995822   2.762390   2.121534   0.000000
 Stoichiometry    C9H10N8O2
 Framework group  C1[X(C9H10N8O2)]
 Deg. of freedom    81
 Full point group                 C1      NOp   1
 Largest Abelian subgroup         C1      NOp   1
 Largest concise Abelian subgroup C1      NOp   1
                         Standard orientation:                         
 ---------------------------------------------------------------------
 Center     Atomic      Atomic             Coordinates (Angstroms)
 Number     Number       Type             X           Y           Z
 ---------------------------------------------------------------------
      1          7           0        4.343706    0.904789   -0.008210
      2          6           0        4.941506   -0.317866   -0.006270
      3          1           0        6.025856   -0.328777   -0.009442
      4          6           0        4.189068   -1.445769   -0.000730
      5          1           0        4.644913   -2.427238    0.000750
      6          6           0        2.754394   -1.277416    0.002885
      7          7           0        1.946116   -2.340949    0.007989
      8          1           0        0.914483   -2.222845    0.007663
      9          1           0        2.336051   -3.269265    0.007858
     10          7           0        2.187782   -0.063776    0.001460
     11          6           0        2.942413    1.066240   -0.004593
     12          8           0        2.487885    2.214421   -0.007225
     13          1           0        4.881549    1.760035   -0.012591
     14          7           0       -4.667764    0.494707   -0.006727
     15          6           0       -4.973517   -0.858251   -0.009134
     16          1           0       -5.998147   -1.204496   -0.013282
     17          7           0       -3.912999   -1.620629   -0.005889
     18          6           0       -2.849759   -0.732586   -0.001024
     19          6           0       -1.437068   -0.959386    0.003487
     20          8           0       -0.825575   -2.038955    0.004063
     21          7           0       -0.724276    0.255199    0.007491
     22          1           0        0.305678    0.165600    0.008392
     23          6           0       -1.277996    1.514336    0.007204
     24          7           0       -0.417463    2.553908    0.014875
     25          1           0        0.598102    2.438815    0.004939
     26          1           0       -0.823754    3.474122    0.003674
     27          7           0       -2.585563    1.737273    0.002319
     28          6           0       -3.299256    0.592917   -0.001435
     29          1           0       -5.308699    1.273357   -0.008150
 ---------------------------------------------------------------------
 Rotational constants (GHZ):      0.8841776      0.1990225      0.1624562
 Standard basis: 6-31G(d,p) (6D, 7F)
 There are   335 symmetry adapted basis functions of A   symmetry.
 Integral buffers will be    131072 words long.
 Raffenetti 2 integral format.
 Two-electron integral symmetry is turned on.
   335 basis functions,   602 primitive gaussians,   335 cartesian basis functions
    68 alpha electrons       68 beta electrons
       nuclear repulsion energy      1387.5079695849 Hartrees.
 NAtoms=   29 NActive=   29 NUniq=   29 SFac= 1.00D+00 NAtFMM=   50 NAOKFM=F Big=F
 One-electron integrals computed using PRISM.
 NBasis=   335 RedAO= T  NBF=   335
 NBsUse=   335 1.00D-06 NBFU=   335
 Harris functional with IExCor=  402 diagonalized for initial guess.
 ExpMin= 1.61D-01 ExpMax= 5.48D+03 ExpMxC= 8.25D+02 IAcc=1 IRadAn=         1 AccDes= 0.00D+00
 HarFok:  IExCor=  402 AccDes= 0.00D+00 IRadAn=         1 IDoV= 1
 ScaDFX=  1.000000  1.000000  1.000000  1.000000
 FoFCou: FMM=F IPFlag=           0 FMFlag=      100000 FMFlg1=           0
         NFxFlg=           0 DoJE=T BraDBF=F KetDBF=T FulRan=T
         Omega=  0.000000  0.000000  1.000000  0.000000  0.000000 ICntrl=     500 IOpCl=  0
         NMat0=    1 NMatS0=    1 NMatT0=    0 NMatD0=    1 NMtDS0=    0 NMtDT0=    0
         I1Cent=           4 NGrid=           0.
 Petite list used in FoFCou.
 Initial guess orbital symmetries:
       Occupied  (A) (A) (A) (A) (A) (A) (A) (A) (A) (A) (A) (A)
                 (A) (A) (A) (A) (A) (A) (A) (A) (A) (A) (A) (A)
                 (A) (A) (A) (A) (A) (A) (A) (A) (A) (A) (A) (A)
                 (A) (A) (A) (A) (A) (A) (A) (A) (A) (A) (A) (A)
                 (A) (A) (A) (A) (A) (A) (A) (A) (A) (A) (A) (A)
                 (A) (A) (A) (A) (A) (A) (A) (A)
       Virtual   (A) (A) (A) (A) (A) (A) (A) (A) (A) (A) (A) (A)
                 (A) (A) (A) (A) (A) (A) (A) (A) (A) (A) (A) (A)
                 (A) (A) (A) (A) (A) (A) (A) (A) (A) (A) (A) (A)
                 (A) (A) (A) (A) (A) (A) (A) (A) (A) (A) (A) (A)
                 (A) (A) (A) (A) (A) (A) (A) (A) (A) (A) (A) (A)
                 (A) (A) (A) (A) (A) (A) (A) (A) (A) (A) (A) (A)
                 (A) (A) (A) (A) (A) (A) (A) (A) (A) (A) (A) (A)
                 (A) (A) (A) (A) (A) (A) (A) (A) (A) (A) (A) (A)
                 (A) (A) (A) (A) (A) (A) (A) (A) (A) (A) (A) (A)
                 (A) (A) (A) (A) (A) (A) (A) (A) (A) (A) (A) (A)
                 (A) (A) (A) (A) (A) (A) (A) (A) (A) (A) (A) (A)
                 (A) (A) (A) (A) (A) (A) (A) (A) (A) (A) (A) (A)
                 (A) (A) (A) (A) (A) (A) (A) (A) (A) (A) (A) (A)
                 (A) (A) (A) (A) (A) (A) (A) (A) (A) (A) (A) (A)
                 (A) (A) (A) (A) (A) (A) (A) (A) (A) (A) (A) (A)
                 (A) (A) (A) (A) (A) (A) (A) (A) (A) (A) (A) (A)
                 (A) (A) (A) (A) (A) (A) (A) (A) (A) (A) (A) (A)
                 (A) (A) (A) (A) (A) (A) (A) (A) (A) (A) (A) (A)
                 (A) (A) (A) (A) (A) (A) (A) (A) (A) (A) (A) (A)
                 (A) (A) (A) (A) (A) (A) (A) (A) (A) (A) (A) (A)
                 (A) (A) (A) (A) (A) (A) (A) (A) (A) (A) (A) (A)
                 (A) (A) (A) (A) (A) (A) (A) (A) (A) (A) (A) (A)
                 (A) (A) (A)
 The electronic state of the initial guess is 1-A.
 Requested convergence on RMS density matrix=1.00D-08 within 128 cycles.
 Requested convergence on MAX density matrix=1.00D-06.
 Requested convergence on             energy=1.00D-06.
 No special actions if energy rises.
 Integral accuracy reduced to 1.0D-05 until final iterations.
 Initial convergence to 1.0D-05 achieved.  Increase integral accuracy.
 SCF Done:  E(RB3LYP) =  -937.554978725     A.U. after   15 cycles
             Convg  =    0.3131D-08             -V/T =  2.0092

 **********************************************************************

            Population analysis using the SCF density.

 **********************************************************************

 Orbital symmetries:
       Occupied  (A) (A) (A) (A) (A) (A) (A) (A) (A) (A) (A) (A)
                 (A) (A) (A) (A) (A) (A) (A) (A) (A) (A) (A) (A)
                 (A) (A) (A) (A) (A) (A) (A) (A) (A) (A) (A) (A)
                 (A) (A) (A) (A) (A) (A) (A) (A) (A) (A) (A) (A)
                 (A) (A) (A) (A) (A) (A) (A) (A) (A) (A) (A) (A)
                 (A) (A) (A) (A) (A) (A) (A) (A)
       Virtual   (A) (A) (A) (A) (A) (A) (A) (A) (A) (A) (A) (A)
                 (A) (A) (A) (A) (A) (A) (A) (A) (A) (A) (A) (A)
                 (A) (A) (A) (A) (A) (A) (A) (A) (A) (A) (A) (A)
                 (A) (A) (A) (A) (A) (A) (A) (A) (A) (A) (A) (A)
                 (A) (A) (A) (A) (A) (A) (A) (A) (A) (A) (A) (A)
                 (A) (A) (A) (A) (A) (A) (A) (A) (A) (A) (A) (A)
                 (A) (A) (A) (A) (A) (A) (A) (A) (A) (A) (A) (A)
                 (A) (A) (A) (A) (A) (A) (A) (A) (A) (A) (A) (A)
                 (A) (A) (A) (A) (A) (A) (A) (A) (A) (A) (A) (A)
                 (A) (A) (A) (A) (A) (A) (A) (A) (A) (A) (A) (A)
                 (A) (A) (A) (A) (A) (A) (A) (A) (A) (A) (A) (A)
                 (A) (A) (A) (A) (A) (A) (A) (A) (A) (A) (A) (A)
                 (A) (A) (A) (A) (A) (A) (A) (A) (A) (A) (A) (A)
                 (A) (A) (A) (A) (A) (A) (A) (A) (A) (A) (A) (A)
                 (A) (A) (A) (A) (A) (A) (A) (A) (A) (A) (A) (A)
                 (A) (A) (A) (A) (A) (A) (A) (A) (A) (A) (A) (A)
                 (A) (A) (A) (A) (A) (A) (A) (A) (A) (A) (A) (A)
                 (A) (A) (A) (A) (A) (A) (A) (A) (A) (A) (A) (A)
                 (A) (A) (A) (A) (A) (A) (A) (A) (A) (A) (A) (A)
                 (A) (A) (A) (A) (A) (A) (A) (A) (A) (A) (A) (A)
                 (A) (A) (A) (A) (A) (A) (A) (A) (A) (A) (A) (A)
                 (A) (A) (A) (A) (A) (A) (A) (A) (A) (A) (A) (A)
                 (A) (A) (A)
 The electronic state is 1-A.
 Alpha  occ. eigenvalues --  -19.12118 -19.10151 -14.40669 -14.37855 -14.35932
 Alpha  occ. eigenvalues --  -14.35669 -14.33527 -14.33049 -14.30595 -14.30580
 Alpha  occ. eigenvalues --  -10.32306 -10.29685 -10.29340 -10.27785 -10.27662
 Alpha  occ. eigenvalues --  -10.24220 -10.23430 -10.21611 -10.18318  -1.05831
 Alpha  occ. eigenvalues --   -1.02602  -1.00382  -0.98366  -0.97669  -0.95722
 Alpha  occ. eigenvalues --   -0.88480  -0.88290  -0.87856  -0.85570  -0.79825
 Alpha  occ. eigenvalues --   -0.73691  -0.67978  -0.66500  -0.65130  -0.63220
 Alpha  occ. eigenvalues --   -0.60486  -0.58433  -0.57523  -0.56877  -0.53984
 Alpha  occ. eigenvalues --   -0.52264  -0.51751  -0.50254  -0.48873  -0.46720
 Alpha  occ. eigenvalues --   -0.46559  -0.46067  -0.45131  -0.45055  -0.43438
 Alpha  occ. eigenvalues --   -0.42173  -0.41151  -0.40463  -0.39899  -0.38967
 Alpha  occ. eigenvalues --   -0.36752  -0.36234  -0.30175  -0.28857  -0.28688
 Alpha  occ. eigenvalues --   -0.27822  -0.26244  -0.26110  -0.25365  -0.25173
 Alpha  occ. eigenvalues --   -0.24937  -0.24209  -0.18467
 Alpha virt. eigenvalues --   -0.04501   0.00557   0.01459   0.02598   0.05293
 Alpha virt. eigenvalues --    0.06841   0.08647   0.09321   0.10873   0.11648
 Alpha virt. eigenvalues --    0.12726   0.14655   0.14855   0.17626   0.18663
 Alpha virt. eigenvalues --    0.19189   0.20587   0.21283   0.22344   0.23775
 Alpha virt. eigenvalues --    0.24962   0.26148   0.27276   0.29326   0.30809
 Alpha virt. eigenvalues --    0.32317   0.33382   0.34316   0.35678   0.37941
 Alpha virt. eigenvalues --    0.38138   0.39561   0.40017   0.43667   0.46736
 Alpha virt. eigenvalues --    0.47299   0.48215   0.49671   0.50309   0.51767
 Alpha virt. eigenvalues --    0.53447   0.54797   0.55438   0.55579   0.56252
 Alpha virt. eigenvalues --    0.57053   0.57135   0.57698   0.59295   0.61151
 Alpha virt. eigenvalues --    0.61295   0.61520   0.62878   0.63362   0.64267
 Alpha virt. eigenvalues --    0.64306   0.65448   0.65762   0.66945   0.67324
 Alpha virt. eigenvalues --    0.68684   0.70253   0.71382   0.71398   0.73345
 Alpha virt. eigenvalues --    0.73788   0.75229   0.77898   0.78750   0.79191
 Alpha virt. eigenvalues --    0.79377   0.81029   0.81537   0.82179   0.83102
 Alpha virt. eigenvalues --    0.84182   0.85176   0.85311   0.85842   0.86613
 Alpha virt. eigenvalues --    0.88586   0.88755   0.89366   0.90468   0.92183
 Alpha virt. eigenvalues --    0.93540   0.95600   0.97250   0.98561   1.02538
 Alpha virt. eigenvalues --    1.03380   1.03565   1.05156   1.05744   1.06312
 Alpha virt. eigenvalues --    1.07410   1.09113   1.10013   1.12508   1.16027
 Alpha virt. eigenvalues --    1.19848   1.20190   1.21055   1.23473   1.26856
 Alpha virt. eigenvalues --    1.26929   1.28028   1.29613   1.29734   1.32465
 Alpha virt. eigenvalues --    1.32641   1.32913   1.33428   1.35473   1.36087
 Alpha virt. eigenvalues --    1.36265   1.37147   1.38116   1.38166   1.39376
 Alpha virt. eigenvalues --    1.40023   1.41154   1.41791   1.43240   1.44216
 Alpha virt. eigenvalues --    1.46528   1.47868   1.48705   1.49740   1.51569
 Alpha virt. eigenvalues --    1.56544   1.58734   1.60698   1.62815   1.64807
 Alpha virt. eigenvalues --    1.66990   1.70375   1.71431   1.72841   1.75649
 Alpha virt. eigenvalues --    1.78426   1.79412   1.79887   1.81657   1.82802
 Alpha virt. eigenvalues --    1.83681   1.84643   1.87242   1.87597   1.87619
 Alpha virt. eigenvalues --    1.87928   1.89345   1.91715   1.93190   1.94729
 Alpha virt. eigenvalues --    1.96521   1.96701   1.96838   1.97701   1.98357
 Alpha virt. eigenvalues --    1.99658   2.01531   2.04434   2.05581   2.06332
 Alpha virt. eigenvalues --    2.08239   2.09393   2.09920   2.11537   2.13936
 Alpha virt. eigenvalues --    2.16181   2.19572   2.20328   2.22054   2.22540
 Alpha virt. eigenvalues --    2.24019   2.26222   2.27345   2.27891   2.30275
 Alpha virt. eigenvalues --    2.31107   2.33538   2.34808   2.35069   2.35508
 Alpha virt. eigenvalues --    2.37147   2.38462   2.40324   2.40686   2.41847
 Alpha virt. eigenvalues --    2.44260   2.44735   2.45463   2.45699   2.47002
 Alpha virt. eigenvalues --    2.50435   2.50795   2.52403   2.53809   2.55368
 Alpha virt. eigenvalues --    2.55696   2.56038   2.58503   2.58516   2.60739
 Alpha virt. eigenvalues --    2.61582   2.62189   2.64381   2.64574   2.65742
 Alpha virt. eigenvalues --    2.66676   2.69041   2.72317   2.73220   2.73986
 Alpha virt. eigenvalues --    2.75008   2.75619   2.75667   2.77415   2.78036
 Alpha virt. eigenvalues --    2.81058   2.81717   2.85402   2.87366   2.92991
 Alpha virt. eigenvalues --    2.94036   2.98794   3.00116   3.03352   3.05380
 Alpha virt. eigenvalues --    3.06428   3.08748   3.11576   3.12425   3.16953
 Alpha virt. eigenvalues --    3.22136   3.25669   3.29668   3.34286   3.35471
 Alpha virt. eigenvalues --    3.36892   3.40944   3.44113   3.65304   3.66099
 Alpha virt. eigenvalues --    3.67924   3.71266   3.80259   4.01212   4.04492
 Alpha virt. eigenvalues --    4.06586   4.06839   4.10369   4.14470   4.21322
 Alpha virt. eigenvalues --    4.22875   4.29049   4.31559   4.37660   4.38812
 Alpha virt. eigenvalues --    4.40458   4.48067   4.52115   4.59008   4.69981
 Alpha virt. eigenvalues --    4.71691   4.90658
          Condensed to atoms (all electrons):
              1          2          3          4          5          6
     1  N    6.933449   0.321545  -0.043625  -0.028891   0.003613  -0.023336
     2  C    0.321545   4.688319   0.375615   0.587769  -0.037918  -0.027388
     3  H   -0.043625   0.375615   0.569977  -0.031360  -0.004279   0.002960
     4  C   -0.028891   0.587769  -0.031360   4.992743   0.368379   0.430713
     5  H    0.003613  -0.037918  -0.004279   0.368379   0.590108  -0.026255
     6  C   -0.023336  -0.027388   0.002960   0.430713  -0.026255   4.363595
     7  N    0.000077   0.004354  -0.000138  -0.088292  -0.004925   0.363371
     8  H    0.000004  -0.000075   0.000002   0.003836  -0.000044  -0.012712
     9  H    0.000019   0.000250  -0.000003  -0.004182   0.002899  -0.030573
    10  N   -0.098306  -0.019829  -0.000249  -0.049851   0.003953   0.424680
    11  C    0.250944  -0.034680   0.002343  -0.024620   0.000786  -0.018039
    12  O   -0.094937   0.002020  -0.000107   0.000615   0.000005   0.000754
    13  H    0.327898  -0.027215  -0.006469   0.003910  -0.000104   0.000563
    14  N    0.000000   0.000000   0.000000   0.000000   0.000000   0.000000
    15  C    0.000000   0.000000   0.000000   0.000000   0.000000   0.000000
    16  H    0.000000   0.000000   0.000000   0.000000   0.000000   0.000000
    17  N    0.000000   0.000000   0.000000   0.000000   0.000000   0.000000
    18  C    0.000000   0.000000   0.000000   0.000000   0.000000  -0.000008
    19  C    0.000000   0.000000   0.000000   0.000003   0.000000  -0.000150
    20  O    0.000000   0.000000   0.000000  -0.000002   0.000000  -0.000402
    21  N   -0.000024  -0.000002   0.000000  -0.000065   0.000001  -0.000456
    22  H    0.000433   0.000016   0.000001   0.000644  -0.000012  -0.000684
    23  C   -0.000002   0.000000   0.000000   0.000000   0.000000  -0.000026
    24  N   -0.000034   0.000001   0.000000   0.000000   0.000000   0.000004
    25  H    0.000676  -0.000018   0.000000  -0.000006   0.000000   0.000117
    26  H    0.000000   0.000000   0.000000   0.000000   0.000000   0.000000
    27  N    0.000000   0.000000   0.000000   0.000000   0.000000   0.000000
    28  C    0.000000   0.000000   0.000000   0.000000   0.000000   0.000000
    29  H    0.000000   0.000000   0.000000   0.000000   0.000000   0.000000
              7          8          9         10         11         12
     1  N    0.000077   0.000004   0.000019  -0.098306   0.250944  -0.094937
     2  C    0.004354  -0.000075   0.000250  -0.019829  -0.034680   0.002020
     3  H   -0.000138   0.000002  -0.000003  -0.000249   0.002343  -0.000107
     4  C   -0.088292   0.003836  -0.004182  -0.049851  -0.024620   0.000615
     5  H   -0.004925  -0.000044   0.002899   0.003953   0.000786   0.000005
     6  C    0.363371  -0.012712  -0.030573   0.424680  -0.018039   0.000754
     7  N    6.887578   0.255592   0.349269  -0.084724   0.002482  -0.000047
     8  H    0.255592   0.334370  -0.015804  -0.001940  -0.000059  -0.000016
     9  H    0.349269  -0.015804   0.422468   0.004316  -0.000115   0.000001
    10  N   -0.084724  -0.001940   0.004316   7.150743   0.349380  -0.087553
    11  C    0.002482  -0.000059  -0.000115   0.349380   4.202868   0.545606
    12  O   -0.000047  -0.000016   0.000001  -0.087553   0.545606   8.137884
    13  H    0.000020   0.000000  -0.000001   0.005790  -0.010573   0.009148
    14  N    0.000000   0.000000   0.000000   0.000000   0.000000   0.000000
    15  C    0.000000   0.000000   0.000000   0.000000   0.000000   0.000000
    16  H    0.000000   0.000000   0.000000   0.000000   0.000000   0.000000
    17  N    0.000000  -0.000006   0.000000   0.000000   0.000000   0.000000
    18  C   -0.000086   0.001320   0.000002  -0.000004  -0.000001   0.000000
    19  C    0.000798  -0.002055   0.000018   0.000600   0.000027   0.000003
    20  O   -0.036580   0.085628   0.000840  -0.000276   0.000017   0.000000
    21  N    0.001390  -0.003702  -0.000022  -0.035290   0.000183   0.000127
    22  H   -0.003471   0.004396   0.000060   0.071351  -0.000178  -0.000134
    23  C   -0.000001   0.000085   0.000000   0.000173  -0.000134  -0.000177
    24  N    0.000000  -0.000003   0.000000   0.000492   0.000035  -0.023675
    25  H   -0.000003  -0.000003   0.000000  -0.001607  -0.000308   0.065340
    26  H    0.000000   0.000000   0.000000  -0.000003   0.000028   0.000378
    27  N    0.000000   0.000000   0.000000  -0.000014  -0.000002  -0.000001
    28  C    0.000002  -0.000044   0.000000  -0.000003   0.000000   0.000000
    29  H    0.000000   0.000000   0.000000   0.000000   0.000000   0.000000
             13         14         15         16         17         18
     1  N    0.327898   0.000000   0.000000   0.000000   0.000000   0.000000
     2  C   -0.027215   0.000000   0.000000   0.000000   0.000000   0.000000
     3  H   -0.006469   0.000000   0.000000   0.000000   0.000000   0.000000
     4  C    0.003910   0.000000   0.000000   0.000000   0.000000   0.000000
     5  H   -0.000104   0.000000   0.000000   0.000000   0.000000   0.000000
     6  C    0.000563   0.000000   0.000000   0.000000   0.000000  -0.000008
     7  N    0.000020   0.000000   0.000000   0.000000   0.000000  -0.000086
     8  H    0.000000   0.000000   0.000000   0.000000  -0.000006   0.001320
     9  H   -0.000001   0.000000   0.000000   0.000000   0.000000   0.000002
    10  N    0.005790   0.000000   0.000000   0.000000   0.000000  -0.000004
    11  C   -0.010573   0.000000   0.000000   0.000000   0.000000  -0.000001
    12  O    0.009148   0.000000   0.000000   0.000000   0.000000   0.000000
    13  H    0.413016   0.000000   0.000000   0.000000   0.000000   0.000000
    14  N    0.000000   6.917154   0.325958  -0.057486  -0.070177  -0.073957
    15  C    0.000000   0.325958   4.671377   0.391465   0.541154  -0.095343
    16  H    0.000000  -0.057486   0.391465   0.583516  -0.037007   0.004295
    17  N    0.000000  -0.070177   0.541154  -0.037007   6.790766   0.375834
    18  C    0.000000  -0.073957  -0.095343   0.004295   0.375834   5.067190
    19  C    0.000000   0.005427   0.006966  -0.000200  -0.055734   0.388313
    20  O    0.000000  -0.000047   0.000130   0.000001   0.000201  -0.069366
    21  N    0.000001   0.000354  -0.000153   0.000003   0.002926  -0.088939
    22  H   -0.000017   0.000011   0.000002   0.000000  -0.000052   0.004655
    23  C    0.000000  -0.000176   0.000065   0.000003   0.000654  -0.014889
    24  N    0.000003  -0.000120   0.000001   0.000000   0.000003   0.000671
    25  H   -0.000043   0.000001   0.000000   0.000000   0.000000  -0.000046
    26  H    0.000000  -0.000020   0.000000   0.000000  -0.000001   0.000060
    27  N    0.000000  -0.069273   0.003772  -0.000059   0.007395  -0.057155
    28  C    0.000000   0.272438  -0.090757   0.004625  -0.071521   0.413583
    29  H    0.000000   0.335481  -0.023586   0.000235   0.003903   0.010316
             19         20         21         22         23         24
     1  N    0.000000   0.000000  -0.000024   0.000433  -0.000002  -0.000034
     2  C    0.000000   0.000000  -0.000002   0.000016   0.000000   0.000001
     3  H    0.000000   0.000000   0.000000   0.000001   0.000000   0.000000
     4  C    0.000003  -0.000002  -0.000065   0.000644   0.000000   0.000000
     5  H    0.000000   0.000000   0.000001  -0.000012   0.000000   0.000000
     6  C   -0.000150  -0.000402  -0.000456  -0.000684  -0.000026   0.000004
     7  N    0.000798  -0.036580   0.001390  -0.003471  -0.000001   0.000000
     8  H   -0.002055   0.085628  -0.003702   0.004396   0.000085  -0.000003
     9  H    0.000018   0.000840  -0.000022   0.000060   0.000000   0.000000
    10  N    0.000600  -0.000276  -0.035290   0.071351   0.000173   0.000492
    11  C    0.000027   0.000017   0.000183  -0.000178  -0.000134   0.000035
    12  O    0.000003   0.000000   0.000127  -0.000134  -0.000177  -0.023675
    13  H    0.000000   0.000000   0.000001  -0.000017   0.000000   0.000003
    14  N    0.005427  -0.000047   0.000354   0.000011  -0.000176  -0.000120
    15  C    0.006966   0.000130  -0.000153   0.000002   0.000065   0.000001
    16  H   -0.000200   0.000001   0.000003   0.000000   0.000003   0.000000
    17  N   -0.055734   0.000201   0.002926  -0.000052   0.000654   0.000003
    18  C    0.388313  -0.069366  -0.088939   0.004655  -0.014889   0.000671
    19  C    4.429782   0.513720   0.254303  -0.008716  -0.029602   0.001086
    20  O    0.513720   8.165784  -0.090372   0.003217   0.002608  -0.000049
    21  N    0.254303  -0.090372   7.202252   0.265051   0.307964  -0.080667
    22  H   -0.008716   0.003217   0.265051   0.344806  -0.013007  -0.004147
    23  C   -0.029602   0.002608   0.307964  -0.013007   4.225623   0.349826
    24  N    0.001086  -0.000049  -0.080667  -0.004147   0.349826   6.897328
    25  H    0.000017  -0.000009  -0.003962   0.003026  -0.014554   0.291275
    26  H   -0.000014   0.000001   0.005294  -0.000010  -0.019181   0.339459
    27  N   -0.023986   0.000040  -0.074174   0.002601   0.539976  -0.087322
    28  C   -0.065910   0.003062  -0.013510   0.000562  -0.058195  -0.001384
    29  H    0.000009   0.000001   0.000034   0.000000  -0.000070  -0.000008
             25         26         27         28         29
     1  N    0.000676   0.000000   0.000000   0.000000   0.000000
     2  C   -0.000018   0.000000   0.000000   0.000000   0.000000
     3  H    0.000000   0.000000   0.000000   0.000000   0.000000
     4  C   -0.000006   0.000000   0.000000   0.000000   0.000000
     5  H    0.000000   0.000000   0.000000   0.000000   0.000000
     6  C    0.000117   0.000000   0.000000   0.000000   0.000000
     7  N   -0.000003   0.000000   0.000000   0.000002   0.000000
     8  H   -0.000003   0.000000   0.000000  -0.000044   0.000000
     9  H    0.000000   0.000000   0.000000   0.000000   0.000000
    10  N   -0.001607  -0.000003  -0.000014  -0.000003   0.000000
    11  C   -0.000308   0.000028  -0.000002   0.000000   0.000000
    12  O    0.065340   0.000378  -0.000001   0.000000   0.000000
    13  H   -0.000043   0.000000   0.000000   0.000000   0.000000
    14  N    0.000001  -0.000020  -0.069273   0.272438   0.335481
    15  C    0.000000   0.000000   0.003772  -0.090757  -0.023586
    16  H    0.000000   0.000000  -0.000059   0.004625   0.000235
    17  N    0.000000  -0.000001   0.007395  -0.071521   0.003903
    18  C   -0.000046   0.000060  -0.057155   0.413583   0.010316
    19  C    0.000017  -0.000014  -0.023986  -0.065910   0.000009
    20  O   -0.000009   0.000001   0.000040   0.003062   0.000001
    21  N   -0.003962   0.005294  -0.074174  -0.013510   0.000034
    22  H    0.003026  -0.000010   0.002601   0.000562   0.000000
    23  C   -0.014554  -0.019181   0.539976  -0.058195  -0.000070
    24  N    0.291275   0.339459  -0.087322  -0.001384  -0.000008
    25  H    0.352700  -0.018340   0.002631  -0.000015   0.000000
    26  H   -0.018340   0.412172   0.003861   0.000580   0.000005
    27  N    0.002631   0.003861   6.951247   0.398181   0.001922
    28  C   -0.000015   0.000580   0.398181   4.722332  -0.026462
    29  H    0.000000   0.000005   0.001922  -0.026462   0.432472
 Mulliken atomic charges:
              1
     1  N   -0.549502
     2  C    0.167235
     3  H    0.135333
     4  C   -0.161343
     5  H    0.103791
     6  C    0.553275
     7  N   -0.646667
     8  H    0.351231
     9  H    0.270558
    10  N   -0.631829
    11  C    0.734010
    12  O   -0.555232
    13  H    0.284073
    14  N   -0.585567
    15  C    0.268950
    16  H    0.110609
    17  N   -0.488339
    18  C    0.133553
    19  C    0.585292
    20  O   -0.578146
    21  N   -0.648546
    22  H    0.329595
    23  C    0.723039
    24  N   -0.682776
    25  H    0.323132
    26  H    0.275728
    27  N   -0.599640
    28  C    0.512437
    29  H    0.265748
 Sum of Mulliken atomic charges =   0.00000
 Mulliken charges with hydrogens summed into heavy atoms:
              1
     1  N   -0.265430
     2  C    0.302568
     4  C   -0.057552
     6  C    0.553275
     7  N   -0.024878
    10  N   -0.631829
    11  C    0.734010
    12  O   -0.555232
    14  N   -0.319819
    15  C    0.379559
    17  N   -0.488339
    18  C    0.133553
    19  C    0.585292
    20  O   -0.578146
    21  N   -0.318951
    23  C    0.723039
    24  N   -0.083916
    27  N   -0.599640
    28  C    0.512437
 Sum of Mulliken charges with hydrogens summed into heavy atoms =   0.00000
 Electronic spatial extent (au):  <R**2>=           6108.9803
 Charge=              0.0000 electrons
 Dipole moment (field-independent basis, Debye):
    X=              5.9706    Y=              1.2448    Z=             -0.0343  Tot=              6.0990
 Quadrupole moment (field-independent basis, Debye-Ang):
   XX=            -54.3152   YY=           -106.6980   ZZ=           -110.1227
   XY=            -17.5945   XZ=              0.0061   YZ=             -0.0982
 Traceless Quadrupole moment (field-independent basis, Debye-Ang):
   XX=             36.0634   YY=            -16.3193   ZZ=            -19.7441
   XY=            -17.5945   XZ=              0.0061   YZ=             -0.0982
 Octapole moment (field-independent basis, Debye-Ang**2):
  XXX=             79.3765  YYY=              7.4991  ZZZ=             -0.0347  XYY=             52.5758
  XXY=             33.1287  XXZ=             -0.7762  XZZ=              1.4555  YZZ=              2.5929
  YYZ=             -0.1275  XYZ=              0.0156
 Hexadecapole moment (field-independent basis, Debye-Ang**3):
 XXXX=          -4189.5793 YYYY=          -1316.1077 ZZZZ=            -99.6548 XXXY=            -96.6009
 XXXZ=             -0.1819 YYYX=           -175.0702 YYYZ=             -0.9536 ZZZX=             -0.1280
 ZZZY=             -0.2189 XXYY=          -1253.3932 XXZZ=          -1148.3144 YYZZ=           -275.9110
 XXYZ=             -0.8253 YYXZ=              0.2529 ZZXY=             13.5231
 N-N= 1.387507969585D+03 E-N=-4.961820900261D+03  KE= 9.289958149999D+02
 Calling FoFJK, ICntrl=      2127 FMM=F ISym2X=0 I1Cent= 0 IOpClX= 0 NMat=1 NMatS=1 NMatT=0.
 ***** Axes restored to original set *****
 -------------------------------------------------------------------
 Center     Atomic                   Forces (Hartrees/Bohr)
 Number     Number              X              Y              Z
 -------------------------------------------------------------------
      1        7          -0.000004335    0.000005944   -0.000002175
      2        6           0.000002478    0.000003001    0.000000786
      3        1          -0.000000494    0.000001461    0.000000113
      4        6          -0.000003918    0.000003056    0.000000479
      5        1           0.000001149    0.000001590    0.000000111
      6        6           0.000009281   -0.000002833    0.000005273
      7        7          -0.000003728    0.000000643   -0.000007409
      8        1           0.000001508   -0.000000293    0.000004316
      9        1           0.000003743    0.000002324    0.000002234
     10        7          -0.000000198    0.000006524   -0.000001366
     11        6           0.000000951   -0.000019173   -0.000004299
     12        8          -0.000004120    0.000010181    0.000006315
     13        1          -0.000000653    0.000000404    0.000000644
     14        7           0.000006904   -0.000009363    0.000001446
     15        6          -0.000004766    0.000010311   -0.000000502
     16        1           0.000001680   -0.000003875    0.000000181
     17        7           0.000006003   -0.000003588   -0.000001213
     18        6          -0.000012821    0.000006265    0.000001359
     19        6           0.000010385    0.000005643    0.000003998
     20        8           0.000001244    0.000005376   -0.000003477
     21        7           0.000006647   -0.000023533   -0.000003732
     22        1          -0.000003663    0.000003097    0.000001297
     23        6          -0.000007140    0.000025071    0.000006106
     24        7          -0.000013489   -0.000009850   -0.000010041
     25        1           0.000008235    0.000000579   -0.000000442
     26        1           0.000001781    0.000000986    0.000002964
     27        7           0.000004868   -0.000001211   -0.000000227
     28        6          -0.000007899   -0.000017585   -0.000002526
     29        1           0.000000367   -0.000001152   -0.000000213
 -------------------------------------------------------------------
 Cartesian Forces:  Max     0.000025071 RMS     0.000006689

 GradGradGradGradGradGradGradGradGradGradGradGradGradGradGradGradGradGrad
 Berny optimization.
 Internal  Forces:  Max     0.000014312 RMS     0.000002765
 Search for a local minimum.
 Step number   1 out of a maximum of  174
 All quantities printed in internal units (Hartrees-Bohrs-Radians)
 Mixed Optimization -- En-DIIS/RFO-DIIS
 Second derivative matrix not updated -- first step.
 ITU=  0
     Eigenvalues ---    0.00444   0.00974   0.01057   0.01183   0.01297
     Eigenvalues ---    0.01566   0.01620   0.01754   0.01851   0.01868
     Eigenvalues ---    0.01874   0.01920   0.01956   0.02010   0.02050
     Eigenvalues ---    0.02093   0.02108   0.02169   0.02185   0.02266
     Eigenvalues ---    0.02325   0.02346   0.02350   0.02475   0.02512
     Eigenvalues ---    0.02657   0.04758   0.05398   0.05842   0.06997
     Eigenvalues ---    0.08603   0.10588   0.15996   0.16000   0.16000
     Eigenvalues ---    0.16000   0.16000   0.16000   0.16000   0.16000
     Eigenvalues ---    0.19660   0.21215   0.22128   0.22702   0.22925
     Eigenvalues ---    0.23200   0.23479   0.23850   0.24748   0.25000
     Eigenvalues ---    0.25000   0.34297   0.35467   0.35734   0.35807
     Eigenvalues ---    0.37470   0.38325   0.40053   0.41072   0.41974
     Eigenvalues ---    0.42696   0.43215   0.44366   0.45920   0.46037
     Eigenvalues ---    0.46223   0.46498   0.46653   0.47134   0.47874
     Eigenvalues ---    0.49320   0.51450   0.53162   0.53804   0.54467
     Eigenvalues ---    0.54953   0.57135   0.58704   0.62539   0.84720
     Eigenvalues ---    0.87250
 RFO step:  Lambda= 0.00000000D+00 EMin= 4.43918295D-03
 Linear search not attempted -- first point.
 Iteration  1 RMS(Cart)=  0.00009015 RMS(Int)=  0.00000000
 Iteration  2 RMS(Cart)=  0.00000001 RMS(Int)=  0.00000000
 Variable       Old X    -DE/DX   Delta X   Delta X   Delta X     New X
                                 (Linear)    (Quad)   (Total)
    R1        2.57187   0.00000   0.00000   0.00000   0.00000   2.57187
    R2        2.66559   0.00000   0.00000  -0.00001  -0.00001   2.66558
    R3        1.90922   0.00000   0.00000   0.00000   0.00000   1.90922
    R4        2.04924   0.00000   0.00000   0.00000   0.00000   2.04924
    R5        2.56221   0.00000   0.00000   0.00000   0.00000   2.56221
    R6        2.04499   0.00000   0.00000   0.00000   0.00000   2.04499
    R7        2.72975   0.00000   0.00000  -0.00001  -0.00001   2.72974
    R8        2.52435   0.00000   0.00000   0.00000   0.00000   2.52435
    R9        2.53109   0.00000   0.00000   0.00000   0.00000   2.53109
   R10        1.96224   0.00000   0.00000   0.00000   0.00000   1.96224
   R11        1.90274   0.00000   0.00000   0.00000   0.00000   1.90274
   R12        3.30655   0.00000   0.00000   0.00001   0.00001   3.30656
   R13        2.56783  -0.00001   0.00000  -0.00002  -0.00002   2.56782
   R14        3.58300   0.00000   0.00000   0.00001   0.00001   3.58301
   R15        2.33358   0.00001   0.00000   0.00001   0.00001   2.33359
   R16        3.59633   0.00000   0.00000  -0.00003  -0.00003   3.59630
   R17        2.62120  -0.00001   0.00000  -0.00002  -0.00002   2.62118
   R18        2.59278  -0.00001   0.00000  -0.00002  -0.00002   2.59276
   R19        1.90581   0.00000   0.00000   0.00000   0.00000   1.90581
   R20        2.04385   0.00000   0.00000   0.00000   0.00000   2.04385
   R21        2.46819   0.00000   0.00000   0.00001   0.00001   2.46820
   R22        2.61788   0.00000   0.00000   0.00000   0.00000   2.61788
   R23        2.70380   0.00001   0.00000   0.00002   0.00002   2.70382
   R24        2.64495  -0.00001   0.00000  -0.00002  -0.00002   2.64492
   R25        2.34463   0.00000   0.00000   0.00000   0.00000   2.34462
   R26        2.66130  -0.00001   0.00000  -0.00002  -0.00002   2.66128
   R27        1.95368   0.00000   0.00000  -0.00001  -0.00001   1.95367
   R28        2.59934   0.00001   0.00000   0.00003   0.00003   2.59937
   R29        2.55028  -0.00001   0.00000  -0.00001  -0.00001   2.55027
   R30        2.50662   0.00000   0.00000  -0.00001  -0.00001   2.50661
   R31        1.93152   0.00001   0.00000   0.00002   0.00002   1.93153
   R32        1.90102   0.00000   0.00000   0.00000   0.00000   1.90102
   R33        2.54863   0.00001   0.00000   0.00001   0.00001   2.54864
    A1        2.14026   0.00000   0.00000   0.00000   0.00000   2.14025
    A2        2.12546   0.00000   0.00000   0.00000   0.00000   2.12545
    A3        2.01747   0.00000   0.00000   0.00001   0.00001   2.01748
    A4        2.03561   0.00000   0.00000   0.00001   0.00001   2.03562
    A5        2.09853   0.00000   0.00000  -0.00001  -0.00001   2.09852
    A6        2.14905   0.00000   0.00000   0.00000   0.00000   2.14905
    A7        2.11848   0.00000   0.00000   0.00000   0.00000   2.11847
    A8        2.04230   0.00000   0.00000   0.00000   0.00000   2.04231
    A9        2.12241   0.00000   0.00000   0.00000   0.00000   2.12241
   A10        2.10386   0.00000   0.00000   0.00001   0.00001   2.10386
   A11        2.12440   0.00000   0.00000   0.00000   0.00000   2.12440
   A12        2.05493   0.00000   0.00000  -0.00001  -0.00001   2.05492
   A13        2.10667   0.00000   0.00000   0.00000   0.00000   2.10667
   A14        2.09405   0.00000   0.00000  -0.00002  -0.00002   2.09404
   A15        2.08245   0.00000   0.00000   0.00002   0.00002   2.08247
   A16        2.11601   0.00000   0.00000  -0.00001  -0.00001   2.11600
   A17        2.12886   0.00000   0.00000   0.00002   0.00002   2.12888
   A18        2.03832   0.00000   0.00000  -0.00001  -0.00001   2.03831
   A19        2.04488   0.00000   0.00000   0.00001   0.00001   2.04490
   A20        2.06244   0.00000   0.00000  -0.00001  -0.00001   2.06242
   A21        2.17587   0.00000   0.00000   0.00000   0.00000   2.17587
   A22        2.06589   0.00000   0.00000   0.00000   0.00000   2.06589
   A23        1.86470   0.00000   0.00000   0.00000   0.00000   1.86470
   A24        2.23064   0.00000   0.00000   0.00001   0.00001   2.23065
   A25        2.18785   0.00000   0.00000  -0.00001  -0.00001   2.18784
   A26        2.11893   0.00000   0.00000   0.00001   0.00001   2.11894
   A27        1.97182   0.00000   0.00000  -0.00001  -0.00001   1.97181
   A28        2.19244   0.00000   0.00000  -0.00001  -0.00001   2.19243
   A29        1.82247   0.00000   0.00000   0.00000   0.00000   1.82246
   A30        2.28656   0.00000   0.00000   0.00001   0.00001   2.28657
   A31        1.93970   0.00000   0.00000   0.00000   0.00000   1.93970
   A32        2.05693   0.00000   0.00000  -0.00001  -0.00001   2.05692
   A33        2.24535   0.00000   0.00000   0.00000   0.00000   2.24534
   A34        1.94232   0.00000   0.00000   0.00001   0.00001   1.94233
   A35        2.09552   0.00000   0.00000  -0.00001  -0.00001   2.09551
   A36        2.19145   0.00000   0.00000   0.00003   0.00003   2.19148
   A37        2.01472   0.00000   0.00000   0.00001   0.00001   2.01473
   A38        2.19658   0.00000   0.00000   0.00000   0.00000   2.19658
   A39        2.07188   0.00000   0.00000   0.00000   0.00000   2.07187
   A40        2.03583   0.00000   0.00000  -0.00002  -0.00002   2.03581
   A41        2.15397   0.00000   0.00000  -0.00001  -0.00001   2.15396
   A42        2.09338   0.00001   0.00000   0.00003   0.00003   2.09341
   A43        2.14929   0.00000   0.00000   0.00000   0.00000   2.14929
   A44        2.03426   0.00000   0.00000   0.00002   0.00002   2.03428
   A45        2.09923   0.00000   0.00000  -0.00002  -0.00002   2.09921
   A46        1.95957   0.00000   0.00000   0.00001   0.00001   1.95958
   A47        1.82610   0.00000   0.00000   0.00001   0.00001   1.82610
   A48        2.20008   0.00000   0.00000  -0.00001  -0.00001   2.20007
   A49        2.25701   0.00000   0.00000   0.00000   0.00000   2.25701
   A50        3.15028   0.00000   0.00000  -0.00003  -0.00003   3.15025
   A51        3.10707   0.00000   0.00000  -0.00002  -0.00002   3.10705
   A52        3.13629   0.00000   0.00000   0.00002   0.00002   3.13630
   A53        3.13834   0.00000   0.00000   0.00002   0.00002   3.13835
   A54        3.14852   0.00000   0.00000  -0.00012  -0.00012   3.14840
   A55        3.13535   0.00000   0.00000  -0.00016  -0.00016   3.13519
    D1        3.14156   0.00000   0.00000   0.00001   0.00001   3.14157
    D2        0.00006   0.00000   0.00000   0.00000   0.00000   0.00006
    D3        0.00023   0.00000   0.00000  -0.00002  -0.00002   0.00021
    D4       -3.14127   0.00000   0.00000  -0.00003  -0.00003  -3.14130
    D5        0.00036   0.00000   0.00000  -0.00001  -0.00001   0.00035
    D6       -3.14114   0.00000   0.00000  -0.00005  -0.00005  -3.14119
    D7       -3.14148   0.00000   0.00000   0.00002   0.00002  -3.14147
    D8        0.00021   0.00000   0.00000  -0.00003  -0.00003   0.00019
    D9        3.14143   0.00000   0.00000   0.00000   0.00000   3.14143
   D10        0.00001   0.00000   0.00000   0.00000   0.00000   0.00000
   D11       -0.00006   0.00000   0.00000   0.00000   0.00000  -0.00007
   D12       -3.14149   0.00000   0.00000  -0.00001  -0.00001  -3.14150
   D13        3.14124   0.00000   0.00000  -0.00001  -0.00001   3.14123
   D14       -0.00051   0.00000   0.00000   0.00001   0.00001  -0.00050
   D15       -0.00019   0.00000   0.00000  -0.00001  -0.00001  -0.00020
   D16        3.14124   0.00000   0.00000   0.00001   0.00001   3.14126
   D17       -3.13831   0.00000   0.00000  -0.00008  -0.00008  -3.13839
   D18       -0.00170   0.00000   0.00000   0.00007   0.00007  -0.00163
   D19        0.00344   0.00000   0.00000  -0.00010  -0.00010   0.00334
   D20        3.14005   0.00000   0.00000   0.00005   0.00005   3.14010
   D21        0.00097   0.00000   0.00000  -0.00002  -0.00002   0.00094
   D22       -3.14022   0.00000   0.00000   0.00003   0.00003  -3.14019
   D23       -3.14079   0.00000   0.00000   0.00000   0.00000  -3.14079
   D24        0.00122   0.00000   0.00000   0.00005   0.00005   0.00127
   D25       -0.00575   0.00000   0.00000   0.00005   0.00005  -0.00570
   D26       -3.14110   0.00000   0.00000  -0.00011  -0.00011  -3.14122
   D27       -0.00086   0.00000   0.00000   0.00002   0.00002  -0.00084
   D28        3.14062   0.00000   0.00000   0.00006   0.00006   3.14069
   D29        3.14034   0.00000   0.00000  -0.00003  -0.00003   3.14031
   D30       -0.00136   0.00000   0.00000   0.00002   0.00002  -0.00134
   D31       -0.00653   0.00000   0.00000   0.00003   0.00003  -0.00650
   D32        3.14053   0.00000   0.00000  -0.00005  -0.00005   3.14048
   D33        3.13360   0.00000   0.00000   0.00011   0.00011   3.13371
   D34       -0.00252   0.00000   0.00000   0.00003   0.00003  -0.00249
   D35       -3.13723   0.00000   0.00000  -0.00005  -0.00005  -3.13728
   D36        0.00447   0.00000   0.00000  -0.00010  -0.00010   0.00437
   D37       -0.01815   0.00000   0.00000   0.00023   0.00023  -0.01792
   D38       -3.13071   0.00000   0.00000  -0.00008  -0.00008  -3.13078
   D39        3.14152   0.00000   0.00000   0.00001   0.00001   3.14153
   D40       -0.00007   0.00000   0.00000   0.00002   0.00002  -0.00006
   D41        0.00030   0.00000   0.00000  -0.00001  -0.00001   0.00029
   D42       -3.14129   0.00000   0.00000   0.00000   0.00000  -3.14129
   D43        0.00006   0.00000   0.00000  -0.00003  -0.00003   0.00003
   D44        3.14158   0.00000   0.00000  -0.00001  -0.00001   3.14157
   D45        3.14129   0.00000   0.00000  -0.00002  -0.00002   3.14127
   D46       -0.00037   0.00000   0.00000   0.00001   0.00001  -0.00036
   D47        0.00005   0.00000   0.00000   0.00001   0.00001   0.00006
   D48       -3.14154   0.00000   0.00000   0.00002   0.00002  -3.14153
   D49       -3.14105   0.00000   0.00000  -0.00002  -0.00002  -3.14108
   D50       -0.00001   0.00000   0.00000  -0.00003  -0.00003  -0.00004
   D51        0.00001   0.00000   0.00000   0.00001   0.00001   0.00002
   D52        3.14150   0.00000   0.00000  -0.00003  -0.00003   3.14148
   D53       -3.14100   0.00000   0.00000   0.00002   0.00002  -3.14098
   D54        0.00049   0.00000   0.00000  -0.00002  -0.00002   0.00047
   D55       -0.00003   0.00000   0.00000   0.00004   0.00004   0.00001
   D56       -3.14155   0.00000   0.00000   0.00001   0.00001  -3.14154
   D57        3.14109   0.00000   0.00000   0.00003   0.00003   3.14113
   D58       -0.00043   0.00000   0.00000   0.00001   0.00001  -0.00042
   D59        3.14012   0.00000   0.00000   0.00003   0.00003   3.14016
   D60       -0.00136   0.00000   0.00000   0.00007   0.00007  -0.00129
   D61       -3.13893   0.00000   0.00000  -0.00001  -0.00001  -3.13894
   D62       -0.00004   0.00000   0.00000   0.00002   0.00002  -0.00002
   D63        0.00257   0.00000   0.00000  -0.00004  -0.00004   0.00253
   D64        3.14146   0.00000   0.00000  -0.00001  -0.00001   3.14145
   D65        3.13879   0.00000   0.00000   0.00003   0.00003   3.13882
   D66       -0.00062   0.00000   0.00000  -0.00001  -0.00001  -0.00063
   D67       -0.00558   0.00000   0.00000   0.00006   0.00006  -0.00552
   D68        3.13820   0.00000   0.00000   0.00002   0.00002   3.13822
   D69        0.01841   0.00000   0.00000  -0.00014  -0.00014   0.01827
   D70        3.12939   0.00000   0.00000   0.00009   0.00009   3.12948
   D71       -3.12529   0.00000   0.00000  -0.00010  -0.00010  -3.12539
   D72       -0.01431   0.00000   0.00000   0.00013   0.00013  -0.01418
   D73        0.00068   0.00000   0.00000   0.00000   0.00000   0.00068
   D74       -3.13865   0.00000   0.00000  -0.00005  -0.00005  -3.13870
   D75        3.14150   0.00000   0.00000  -0.00003  -0.00003   3.14147
   D76       -0.00018   0.00000   0.00000   0.00000   0.00000  -0.00018
         Item               Value     Threshold  Converged?
 Maximum Force            0.000014     0.000450     YES
 RMS     Force            0.000003     0.000300     YES
 Maximum Displacement     0.000377     0.001800     YES
 RMS     Displacement     0.000090     0.001200     YES
 Predicted change in Energy=-3.493479D-09
 Optimization completed.
    -- Stationary point found.
                           ----------------------------
                           !   Optimized Parameters   !
                           ! (Angstroms and Degrees)  !
 --------------------------                            --------------------------
 ! Name  Definition              Value          Derivative Info.                !
 --------------------------------------------------------------------------------
 ! R1    R(1,2)                  1.361          -DE/DX =    0.0                 !
 ! R2    R(1,11)                 1.4106         -DE/DX =    0.0                 !
 ! R3    R(1,13)                 1.0103         -DE/DX =    0.0                 !
 ! R4    R(2,3)                  1.0844         -DE/DX =    0.0                 !
 ! R5    R(2,4)                  1.3559         -DE/DX =    0.0                 !
 ! R6    R(4,5)                  1.0822         -DE/DX =    0.0                 !
 ! R7    R(4,6)                  1.4445         -DE/DX =    0.0                 !
 ! R8    R(6,7)                  1.3358         -DE/DX =    0.0                 !
 ! R9    R(6,10)                 1.3394         -DE/DX =    0.0                 !
 ! R10   R(7,8)                  1.0384         -DE/DX =    0.0                 !
 ! R11   R(7,9)                  1.0069         -DE/DX =    0.0                 !
 ! R12   R(8,20)                 1.7498         -DE/DX =    0.0                 !
 ! R13   R(10,11)                1.3588         -DE/DX =    0.0                 !
 ! R14   R(10,22)                1.896          -DE/DX =    0.0                 !
 ! R15   R(11,12)                1.2349         -DE/DX =    0.0                 !
 ! R16   R(12,25)                1.9031         -DE/DX =    0.0                 !
 ! R17   R(14,15)                1.3871         -DE/DX =    0.0                 !
 ! R18   R(14,28)                1.372          -DE/DX =    0.0                 !
 ! R19   R(14,29)                1.0085         -DE/DX =    0.0                 !
 ! R20   R(15,16)                1.0816         -DE/DX =    0.0                 !
 ! R21   R(15,17)                1.3061         -DE/DX =    0.0                 !
 ! R22   R(17,18)                1.3853         -DE/DX =    0.0                 !
 ! R23   R(18,19)                1.4308         -DE/DX =    0.0                 !
 ! R24   R(18,28)                1.3996         -DE/DX =    0.0                 !
 ! R25   R(19,20)                1.2407         -DE/DX =    0.0                 !
 ! R26   R(19,21)                1.4083         -DE/DX =    0.0                 !
 ! R27   R(21,22)                1.0338         -DE/DX =    0.0                 !
 ! R28   R(21,23)                1.3755         -DE/DX =    0.0                 !
 ! R29   R(23,24)                1.3496         -DE/DX =    0.0                 !
 ! R30   R(23,27)                1.3264         -DE/DX =    0.0                 !
 ! R31   R(24,25)                1.0221         -DE/DX =    0.0                 !
 ! R32   R(24,26)                1.006          -DE/DX =    0.0                 !
 ! R33   R(27,28)                1.3487         -DE/DX =    0.0                 !
 ! A1    A(2,1,11)             122.6277         -DE/DX =    0.0                 !
 ! A2    A(2,1,13)             121.7796         -DE/DX =    0.0                 !
 ! A3    A(11,1,13)            115.5927         -DE/DX =    0.0                 !
 ! A4    A(1,2,3)              116.6318         -DE/DX =    0.0                 !
 ! A5    A(1,2,4)              120.2367         -DE/DX =    0.0                 !
 ! A6    A(3,2,4)              123.1316         -DE/DX =    0.0                 !
 ! A7    A(2,4,5)              121.3797         -DE/DX =    0.0                 !
 ! A8    A(2,4,6)              117.0153         -DE/DX =    0.0                 !
 ! A9    A(5,4,6)              121.605          -DE/DX =    0.0                 !
 ! A10   A(4,6,7)              120.5421         -DE/DX =    0.0                 !
 ! A11   A(4,6,10)             121.719          -DE/DX =    0.0                 !
 ! A12   A(7,6,10)             117.739          -DE/DX =    0.0                 !
 ! A13   A(6,7,8)              120.7033         -DE/DX =    0.0                 !
 ! A14   A(6,7,9)              119.9805         -DE/DX =    0.0                 !
 ! A15   A(8,7,9)              119.3156         -DE/DX =    0.0                 !
 ! A16   A(6,10,11)            121.2383         -DE/DX =    0.0                 !
 ! A17   A(6,10,22)            121.9744         -DE/DX =    0.0                 !
 ! A18   A(11,10,22)           116.7873         -DE/DX =    0.0                 !
 ! A19   A(1,11,10)            117.1632         -DE/DX =    0.0                 !
 ! A20   A(1,11,12)            118.1689         -DE/DX =    0.0                 !
 ! A21   A(10,11,12)           124.6679         -DE/DX =    0.0                 !
 ! A22   A(11,12,25)           118.3671         -DE/DX =    0.0                 !
 ! A23   A(15,14,28)           106.8393         -DE/DX =    0.0                 !
 ! A24   A(15,14,29)           127.8064         -DE/DX =    0.0                 !
 ! A25   A(28,14,29)           125.3543         -DE/DX =    0.0                 !
 ! A26   A(14,15,16)           121.4057         -DE/DX =    0.0                 !
 ! A27   A(14,15,17)           112.9767         -DE/DX =    0.0                 !
 ! A28   A(16,15,17)           125.6177         -DE/DX =    0.0                 !
 ! A29   A(15,17,18)           104.4196         -DE/DX =    0.0                 !
 ! A30   A(17,18,19)           131.0102         -DE/DX =    0.0                 !
 ! A31   A(17,18,28)           111.1367         -DE/DX =    0.0                 !
 ! A32   A(19,18,28)           117.8531         -DE/DX =    0.0                 !
 ! A33   A(18,19,20)           128.6488         -DE/DX =    0.0                 !
 ! A34   A(18,19,21)           111.2866         -DE/DX =    0.0                 !
 ! A35   A(20,19,21)           120.0646         -DE/DX =    0.0                 !
 ! A36   A(8,20,19)            125.5608         -DE/DX =    0.0                 !
 ! A37   A(19,21,22)           115.4352         -DE/DX =    0.0                 !
 ! A38   A(19,21,23)           125.8548         -DE/DX =    0.0                 !
 ! A39   A(22,21,23)           118.7099         -DE/DX =    0.0                 !
[...]
 00037645,0.00001746,0.00000333,0.00742010,-0.00839814,0.00001677,-0.00
 775941,0.01093972,-0.00002537,0.00020175,0.00032109,-0.00000274,0.0132
 4217,0.00825038,0.00005979,-0.03601998,0.01768648,-0.00011476,0.083447
 90,0.01481229,0.00035080,-0.01881155,-0.00512940,-0.00009619,-0.183096
 34,0.01514907,-0.00029797,-0.00302025,0.03373507,-0.00000797,0.8220597
 3,0.00266782,-0.00505284,0.00001234,-0.00009831,0.00251004,-0.00000576
 ,0.00008613,-0.00020901,0.00000035,-0.00120249,-0.00087753,0.00000585,
 -0.00025949,0.00003380,0.00000029,0.00159733,0.00138138,-0.00000692,-0
 .00277628,-0.00123064,0.00000849,0.00432699,-0.00164897,0.00000121,-0.
 00028046,-0.00003349,0.00000094,-0.01007387,-0.00684026,0.00004584,-0.
 00233012,0.02008504,-0.00005290,0.01114121,-0.01223740,-0.00004224,-0.
 00068108,0.00026571,0.00000351,-0.00099583,-0.00279381,-0.00001220,0.0
 0440984,-0.00423984,0.00000969,0.00022690,-0.00072647,-0.00000152,-0.0
 0630196,-0.00331290,-0.00002837,0.02049715,-0.00870753,0.00005461,-0.0
 3285639,-0.05953824,-0.00013115,0.00226203,0.00677776,0.00001521,0.064
 45180,-0.25367946,-0.00004994,0.01762347,0.00448726,0.00001756,0.07936
 524,0.74754231,0.00002182,-0.00002620,-0.00006632,0.,0.00001331,0.0000
 0671,0.00000096,-0.00000136,0.00000767,-0.00000415,-0.00000813,-0.0000
 1316,0.00000042,-0.00000033,0.00001831,0.00000915,0.00003581,0.0001578
 7,-0.00002521,-0.00001773,-0.00022161,0.00003328,-0.00000397,0.0000438
 0,-0.00000126,0.00000114,0.00005379,-0.00001541,-0.00004789,-0.0003860
 5,-0.00001674,0.00008924,0.00059723,0.00006849,-0.00006394,-0.00031600
 ,-0.00000306,0.00000069,0.00005287,-0.00000784,-0.00006180,0.00396457,
 -0.00003054,0.00008252,0.00165507,-0.00000044,-0.00000090,0.00048245,0
 .00008679,0.00002750,-0.00115132,-0.00014219,0.00006255,0.00083663,0.0
 0036164,-0.00002691,-0.01007119,-0.00011478,-0.00000313,0.00680233,-0.
 00042249,-0.00020741,-0.05602667,0.00002798,0.00008133,-0.00385055,0.0
 0237941,0.00106552,0.18494735,-0.00427688,0.00479778,-0.00000612,-0.00
 005191,-0.00223137,0.00000452,-0.00018006,0.00025746,-0.00000051,0.000
 43193,0.00113965,-0.00000388,-0.00000279,0.00006592,0.00000015,-0.0005
 8821,-0.00448089,0.00001203,0.00284140,0.00239002,-0.00001260,-0.00342
 138,0.00044897,-0.00000228,0.00013579,-0.00016356,0.00000057,0.0027004
 4,0.00670945,-0.00002118,0.00231656,-0.01814729,0.00005485,-0.01677250
 ,0.01340316,0.00007419,0.00061245,-0.00006004,-0.00000277,-0.00008474,
 0.00054026,-0.00000281,0.00036152,-0.00546459,-0.00000238,-0.00008121,
 -0.00026257,0.00000269,-0.00527950,-0.00198662,-0.00002280,0.00765869,
 -0.00367347,0.00003490,-0.01761227,0.00219315,-0.00004274,0.00653807,-
 0.00143912,0.00001624,0.02691763,0.01313780,0.00009320,-0.00295942,-0.
 00003858,-0.00002186,-0.23526592,-0.12450668,-0.00125345,0.85739546,-0
 .00141863,0.00222722,-0.00000191,0.00011594,-0.00135684,0.00000307,-0.
 00004412,0.00008897,-0.00000055,0.00057679,0.00062620,-0.00000265,0.00
 005488,0.00000768,-0.00000040,-0.00088408,-0.00216982,0.00000609,0.002
 28002,0.00115896,-0.00000513,-0.00325396,0.00074622,-0.00000275,0.0001
 4573,-0.00005475,-0.00000055,0.00250937,0.00342816,-0.00001606,0.00009
 558,-0.00765234,0.00002411,-0.00140291,0.00831301,-0.00000734,0.000225
 98,-0.00011649,-0.00000234,0.00191108,0.00313589,0.00001128,-0.0009211
 5,-0.00511271,-0.00000846,-0.00008125,0.00016465,-0.00000103,-0.003305
 03,0.00058106,-0.00001066,-0.00046832,-0.00026931,0.00000190,0.0062230
 4,0.00992674,-0.00000763,0.00187443,-0.00602273,0.00000002,-0.02250732
 ,-0.06892629,-0.00032330,-0.00592323,0.00048500,0.00000260,-0.12814179
 ,-0.29631418,-0.00152505,-0.03534209,0.82831956,-0.00000017,0.00000652
 ,-0.00021498,0.00000315,-0.00001146,-0.00011534,0.00000033,-0.00000016
 ,0.00000276,0.00000846,0.00000718,-0.00001335,-0.00000008,-0.00000006,
 -0.00000439,-0.00001777,-0.00003430,-0.00018898,0.00003517,0.00001632,
 0.00023604,-0.00005275,0.00000849,-0.00017801,0.00000173,-0.00000080,-
 0.00006477,0.00003146,0.00004015,0.00108655,0.00002780,-0.00002485,-0.
 00061019,0.00004022,-0.00001074,0.00377284,0.00000065,-0.00000218,-0.0
 0012392,0.00002256,0.00006505,0.00089689,-0.00000072,-0.00013811,-0.00
 018734,-0.00000027,0.00000088,-0.00024685,-0.00010482,-0.00000605,-0.0
 0017719,0.00009741,-0.00004481,-0.00074491,-0.00017430,0.00010768,0.00
 269962,0.00008143,-0.00004523,0.00011721,0.00024119,-0.00021246,0.0096
 2559,-0.00007217,-0.00002872,-0.00227817,-0.00008007,-0.00019286,-0.04
 226019,-0.00137807,-0.00375078,0.01823215,0.00661796,-0.00659924,0.000
 01213,0.00017837,0.00264424,-0.00000410,0.00027743,-0.00038208,0.00000
 047,-0.00016996,-0.00143653,0.00000392,0.00000169,-0.00009213,-0.00000
 012,0.00023361,0.00536944,-0.00001819,-0.00292248,-0.00295122,0.000018
 60,0.00331222,-0.00054360,-0.00000006,-0.00017440,0.00019297,-0.000001
 49,-0.00315342,-0.00955442,0.00003825,-0.00574924,0.02664512,-0.000080
 89,0.00729445,-0.01588543,-0.00003429,-0.00086876,-0.00007342,0.000001
 90,0.00043688,-0.00022474,0.00000012,0.00009609,0.00109458,0.00000127,
 0.00005334,0.00003607,-0.00000079,0.00113234,0.00046104,0.00000888,-0.
 00135855,0.00113330,-0.00000898,0.00124622,-0.00526372,-0.00003405,-0.
 00315666,0.00366237,0.00000045,-0.00091751,0.00751034,-0.00001523,0.00
 527778,-0.00104309,0.00001278,-0.01722231,-0.01164102,0.00003377,-0.40
 708258,0.04711653,0.00362682,0.40816483,-0.00092267,0.00035161,0.00000
 183,-0.00003054,-0.00007113,0.00000091,-0.00004144,0.00003613,0.000000
 04,-0.00012488,0.00028200,-0.00000046,-0.00009371,0.00002998,0.0000001
 5,-0.00018873,-0.00166634,0.00000563,0.00054256,0.00073859,-0.00000448
 ,-0.00057220,-0.00005353,0.00000057,0.00003818,-0.00004058,0.00000064,
 0.00012037,0.00190777,-0.00000841,0.00577146,-0.00383997,-0.00001068,-
 0.00592618,-0.00344562,0.00002635,0.00014106,0.00003232,-0.00000018,0.
 00002175,-0.00030112,-0.00000473,-0.00001141,-0.00035845,0.00000054,0.
 00000189,-0.00005614,0.00000211,-0.00038257,-0.00024621,-0.00000595,0.
 00090459,-0.00008255,0.00000879,-0.00132744,-0.00019360,-0.00000508,0.
 00083764,-0.00032362,0.00000095,0.00060145,0.00059277,-0.00001512,-0.0
 0119521,-0.00299629,0.00001895,-0.02544823,0.01336438,0.00037996,0.041
 11700,-0.08697569,-0.00014685,-0.03667752,0.08194810,-0.00002719,0.000
 03603,0.00072821,-0.00000346,-0.00000759,0.00031320,-0.00000152,0.0000
 0215,-0.00001697,-0.00000018,0.00000289,0.00004290,0.00000045,0.000000
 28,-0.00001570,0.00000397,-0.00000015,0.00002317,-0.00000215,0.0000032
 7,-0.00016135,0.00000627,-0.00000035,0.00013924,0.00000008,-0.00000017
 ,0.00005043,0.00000375,0.00001608,-0.00142898,-0.00000720,-0.00011121,
 0.00055848,-0.00003578,0.00007844,-0.00620437,0.00000396,0.00000053,0.
 00001646,-0.00000773,-0.00002769,0.00012142,-0.00000374,0.00003925,-0.
 00010287,0.00000063,-0.00000086,-0.00014215,0.00002882,-0.00000131,-0.
 00002800,-0.00003344,0.00001175,-0.00021197,0.00004601,0.00000020,-0.0
 0098728,-0.00001536,0.00000721,-0.00005549,-0.00003708,0.00004671,-0.0
 0181840,0.00001231,0.00002663,0.00228165,-0.00068319,-0.00011502,-0.00
 692278,0.00505325,-0.00011122,-0.00331924,-0.00370730,0.00028024,0.016
 02024,-0.00036330,0.00032937,-0.00000235,-0.00005051,-0.00005708,-0.00
 000035,-0.00001643,0.00002568,0.00000006,-0.00000757,0.00006611,-0.000
 00026,-0.00000952,0.00000416,0.00000010,-0.00003622,-0.00029193,0.0000
 0070,0.00012590,0.00012615,-0.00000044,-0.00017407,0.00004135,-0.00000
 017,0.00001194,-0.00000114,-0.00000005,0.00020870,0.00049702,0.0000008
 0,0.00064534,-0.00135064,0.00000242,-0.00273563,0.00014183,0.00003247,
 0.00004468,0.00002585,-0.00000023,0.00020917,0.00037283,-0.00000128,-0
 .00014811,-0.00059605,-0.00000094,0.00000520,0.00003511,0.00000027,-0.
 00027755,0.00038469,-0.00000412,0.00010884,0.00033717,0.00000350,0.001
 57217,0.00014465,-0.00001540,-0.00026546,-0.00048465,0.00000039,-0.003
 56982,-0.00470696,-0.00004156,-0.00066622,-0.00024769,0.00000450,0.017
 95889,-0.02326113,0.00033870,-0.14233907,0.15428687,-0.00174814,0.0029
 4358,0.02822602,-0.00054747,0.12786036,-0.00021097,0.00006223,-0.00000
 024,-0.00001503,0.00003592,-0.00000002,-0.00001189,0.00001007,0.000000
 09,-0.00007699,0.00000898,0.00000014,-0.00001181,0.00000581,0.00000008
 ,0.00009790,-0.00017779,0.00000047,-0.00005310,0.00005136,-0.00000060,
 0.00010480,-0.00002375,0.00000033,0.00000290,-0.00000816,0.00000022,-0
 .00009489,0.00023044,0.,0.00046659,-0.00038533,-0.00000074,-0.00092390
 ,0.00001054,0.00000384,0.00002148,0.00003186,0.00000018,0.00013468,-0.
 00009489,-0.00000040,-0.00002966,0.00044226,0.00000103,0.00001276,0.00
 002918,0.00000070,0.00040938,0.00028111,0.00000592,-0.00053220,0.00042
 877,0.00000014,0.00239138,0.00025523,0.00000473,-0.00056118,-0.0002538
 3,-0.00000281,-0.00508657,-0.00178951,0.00000521,-0.00000308,0.0001515
 4,0.00000106,0.01248379,-0.02668031,0.00036551,0.14615400,-0.40086891,
 0.00430673,-0.00252245,0.00441577,-0.00001239,-0.15554296,0.42169816,0
 .00000426,-0.00000836,-0.00003382,0.00000008,0.00000454,0.00000953,0.0
 0000014,-0.00000034,0.00000742,-0.00000283,-0.00000231,-0.00001088,-0.
 00000021,0.00000004,0.00000775,0.00000496,0.00000568,0.00004358,-0.000
 00823,-0.00000355,-0.00005425,0.00001207,-0.00000251,0.00003283,-0.000
 00040,0.00000001,0.00001970,-0.00001232,-0.00001136,-0.00006877,-0.000
 00352,0.00003046,0.00004765,0.00003531,-0.00001083,-0.00025720,-0.0000
 0079,0.00000091,0.00005838,-0.00000329,-0.00000831,-0.00020253,0.00000
 450,0.00002413,0.00003864,-0.00000015,-0.00000011,0.00011874,0.0000166
 5,-0.00000056,-0.00014822,-0.00000541,0.00000460,0.00029002,0.00000672
 ,-0.00005604,0.00277811,-0.00001246,0.00000663,-0.00042068,-0.00010895
 ,0.00000625,0.00354339,0.00001565,0.00000580,-0.00103313,-0.00012276,-
 0.00068850,-0.00250827,-0.00197762,0.00582714,-0.00081126,0.00005416,-
 0.00046978,-0.00395710,0.00199102,-0.00463445,0.00638546,-0.00255758,0
 .00180300,0.00000163,0.00009340,-0.00120379,0.00000273,-0.00010078,0.0
 0010603,-0.00000025,0.00013317,0.00101287,-0.00000283,-0.00017768,0.00
 007867,-0.00000009,-0.00064593,-0.00552373,0.00001314,0.00298680,0.002
 42799,-0.00000918,-0.00357155,-0.00009717,-0.00000493,0.00008340,-0.00
 018721,0.00000063,-0.00206615,0.00462135,0.00000453,0.00296508,-0.0063
 5204,0.00000843,-0.00568315,0.00442575,0.00002264,0.00019158,0.0000111
 3,-0.00000179,-0.03249193,-0.03960642,-0.00016929,-0.00019474,-0.00323
 753,-0.00001050,0.00000250,-0.00223648,-0.00000626,-0.01019572,-0.0025
 4694,-0.00006063,0.04522713,-0.02129053,0.00009693,-0.05333349,-0.0202
 5283,-0.00020469,0.01515293,-0.00225795,0.00005950,-0.04026178,0.06538
 650,-0.00015711,0.00659614,0.00291059,-0.00003164,-0.36313959,0.052763
 17,-0.00095438,-0.07449930,-0.01846310,-0.00069681,0.00777618,-0.00444
 602,0.00002772,0.00007122,0.00456376,0.00011376,0.66420929,-0.00080733
 ,0.00158934,-0.00000366,0.00005258,-0.00100851,0.00000230,-0.00001395,
 0.00006602,-0.00000019,0.00061918,0.00055799,-0.00000311,0.00002204,-0
 .00000367,-0.00000002,-0.00101569,-0.00213566,0.00000728,0.00245232,0.
 00103370,-0.00000418,-0.00386260,0.00060856,-0.00000434,0.00015664,-0.
 00001125,-0.00000047,0.00219522,0.00286358,-0.00001397,0.00073876,-0.0
 0552176,0.00001592,-0.00299979,0.00341049,0.00000907,0.00015171,-0.000
 10246,-0.00000048,-0.02151323,0.01155105,-0.00008263,0.00475647,-0.003
 86709,0.00001139,-0.00020379,0.00034154,-0.00000088,-0.00244629,-0.007
 58121,-0.00002227,-0.00504021,-0.03966752,-0.00005892,-0.01851109,0.00
 508166,-0.00005990,0.00871955,-0.00901792,0.00001736,0.03670667,0.0032
 9545,0.00008012,-0.00261093,-0.00559665,0.00001235,0.03864401,-0.13058
 848,0.00000074,-0.04827199,0.01694116,-0.00008064,0.00231147,-0.004639
 15,-0.00009475,0.00175220,0.00305962,-0.00000220,0.09709560,0.46064172
 ,-0.00001177,0.00000855,0.00006109,0.00000014,-0.00000564,-0.00001135,
 -0.00000046,0.00000053,-0.00001163,0.00000129,0.00000495,0.00002740,-0
 .00000085,0.00000030,-0.00000928,-0.00000481,-0.00002429,-0.00003672,0
 .00001436,0.00001019,0.00007880,-0.00001816,0.00000092,-0.00006895,0.0
 0000066,-0.00000062,-0.00002691,-0.00001167,0.00002056,-0.00017069,0.0
 0001062,-0.00002733,-0.00010741,-0.00002421,0.00001997,0.00005801,0.00
 000060,-0.00000012,-0.00002155,-0.00013571,-0.00014693,-0.00101078,-0.
 00000598,-0.00001007,0.00161725,-0.00000562,-0.00000960,0.00144388,-0.
 00005706,-0.00001841,0.00529938,0.00010845,-0.00011772,0.01175779,-0.0
 0017817,-0.00004552,-0.00120582,0.00006448,-0.00002002,-0.00186648,-0.
 00018898,0.00018648,0.01944597,0.00002559,-0.00000197,0.00575398,-0.00
 103247,0.00021083,-0.07267183,-0.00054493,-0.00015364,0.00958756,0.000
 09611,-0.00003243,0.00157189,-0.00003214,0.00000675,-0.00220478,0.0024
 4408,0.00084167,0.07633319,0.00092314,-0.00033839,-0.00000199,-0.00005
 228,0.00027733,-0.00000067,0.00003913,-0.00002527,0.00000006,0.0001053
 5,-0.00031776,0.00000039,0.00009194,-0.00004169,0.,-0.00004433,0.00208
 787,-0.00000476,-0.00104171,-0.00085797,0.00000381,0.00092450,0.000246
 31,-0.00000070,-0.00002685,0.00010387,-0.00000050,0.00162710,-0.001371
 56,-0.00000426,-0.00125873,0.00114035,0.00000090,0.00145585,-0.0008695
 2,-0.00000239,-0.00004259,-0.00002567,0.00000050,-0.29880191,0.0132020
 4,-0.00087991,-0.04787797,-0.07935325,-0.00030640,0.00143517,0.0039466
 9,0.00000336,0.00428876,-0.00032778,-0.00002953,-0.13357461,0.07216681
 ,-0.00014586,-0.00415667,0.04503602,0.00005506,-0.00719801,-0.00501290
 ,-0.00005337,0.00612754,-0.01515394,0.00001963,-0.00248366,-0.00142127
 ,0.00000729,-0.08155929,-0.04413296,-0.00036311,0.00188623,0.00445624,
 0.00009684,-0.00203112,-0.00099829,-0.00007164,-0.00105084,-0.00108641
 ,0.00000206,-0.16045735,-0.08811342,-0.00053569,0.72956523,0.00109665,
 -0.00142067,0.00000085,-0.00009930,0.00120632,-0.00000293,0.00001645,-
 0.00006879,0.00000032,-0.00071603,-0.00093102,0.00000469,0.00008763,-0
 .00002384,0.,0.00142196,0.00442123,-0.00001288,-0.00402949,-0.00188259
 ,0.00000632,0.00599998,-0.00053473,0.00000729,-0.00022058,0.00005072,0
 .00000047,0.00047422,-0.00345969,0.00000212,-0.00106945,0.00430712,-0.
 00000920,0.00245181,-0.00277852,-0.00000197,-0.00006186,0.00008800,0.0
 0000043,-0.00013955,-0.14039171,-0.00007564,-0.03015978,-0.01563282,-0
 .00014294,0.00043212,-0.00617415,-0.00000726,-0.04235776,-0.05568797,-
 0.00022372,0.04296455,-0.27284594,-0.00003003,0.06697972,0.01059496,0.
 00025547,-0.02125638,0.01094068,-0.00006470,0.01425895,-0.04117666,0.0
 0002199,-0.00192190,-0.00206317,0.00000145,-0.06349768,0.01831854,-0.0
 0021614,0.01403240,0.00001698,0.00018084,-0.00335201,0.00160455,-0.000
 07113,-0.00014972,-0.00097649,-0.00001915,-0.10999125,-0.30051718,-0.0
 0070180,0.09918467,0.78355484,0.00000307,-0.00000111,0.00000637,-0.000
 00048,0.00000205,0.00000717,0.00000009,-0.00000004,0.00000050,-0.00000
 053,-0.00000201,0.00000925,0.00000044,-0.00000015,0.00000138,0.0000020
 8,0.00001177,0.00001172,-0.00000887,-0.00000442,-0.00021537,0.00000971
 ,-0.00000029,0.00053378,-0.00000051,0.00000039,0.00001806,0.00000725,-
 0.00000757,0.00000499,-0.00000529,0.00000317,0.00000068,-0.00000127,-0
 .00000220,-0.00011991,0.00000006,0.00000010,0.00000618,-0.00091660,-0.
 00003870,-0.05774979,-0.00024875,-0.00032132,0.01178905,0.00000045,0.0
 0000804,0.00149907,-0.00006538,-0.00006452,0.01180302,-0.00018640,0.00
 009092,-0.07468507,0.00008190,0.00016734,-0.00700490,-0.00006691,-0.00
 001155,0.00662973,0.00004401,-0.00009013,-0.00321241,-0.00001189,-0.00
 000510,-0.00064531,-0.00034505,-0.00012714,-0.00256957,-0.00005155,0.0
 0005571,0.00533059,-0.00000379,-0.00002345,0.00338147,0.00002000,-0.00
 005092,-0.00171441,-0.00050999,-0.00056406,-0.05122118,0.00222746,0.00
 096568,0.16282635,0.00010071,-0.00003634,-0.00000013,-0.00000696,0.000
 01774,-0.00000005,0.00000475,-0.00000279,-0.00000002,0.00002315,-0.000
 02158,0.00000003,0.00000677,-0.00000395,-0.00000002,-0.00003701,0.0001
 5395,-0.00000040,-0.00005459,-0.00005342,0.00000034,0.00003720,0.00001
 126,0.00000007,-0.00000846,0.00000743,-0.00000013,0.00011667,-0.000123
 95,-0.00000004,-0.00014062,0.00015238,-0.00000016,0.00017734,-0.000113
 45,-0.00000031,-0.00000919,-0.00000398,0.00000001,-0.23235452,0.188935
 10,-0.00061594,0.01416977,-0.00368385,0.00008166,-0.00050657,0.0001343
 4,0.00000086,0.00090367,-0.00664420,-0.00002418,-0.00777536,-0.0005325
 7,-0.00004329,0.00103603,0.00243151,-0.00000153,-0.00073217,-0.0002332
 9,-0.00000049,0.00064194,-0.00087730,0.00000127,-0.00019136,-0.0000747
 2,-0.00000002,-0.00162309,-0.00002102,-0.00000738,0.00070157,0.0002845
 1,0.00001092,-0.00023598,0.00006308,-0.00000280,-0.00005568,-0.0000803
 2,-0.00000241,0.00388789,-0.00096411,0.00002231,-0.00681203,0.02962164
 ,0.00002676,0.22873612,-0.00002842,-0.00003601,0.00000021,-0.00000242,
 0.00003950,-0.00000010,-0.00000284,-0.00000030,0.,-0.00004504,-0.00002
 015,0.00000021,-0.00000291,0.00000177,0.,0.00007264,0.00004625,-0.0000
 0028,-0.00013687,-0.00002712,0.00000005,0.00022198,-0.00003500,0.00000
 027,-0.00000837,-0.00000287,0.00000004,-0.00009158,-0.00004249,0.00000
 039,0.00006402,0.00009066,-0.00000050,-0.00003515,-0.00004986,0.000000
 34,0.00000243,0.00000863,-0.00000004,0.19205158,-0.30429049,0.00035374
 ,0.02291581,-0.00433487,0.00008509,-0.00074736,0.00012084,-0.00000130,
 -0.00043427,-0.00570982,-0.00001220,-0.00427505,-0.00110368,-0.0000218
 8,0.00117232,0.00047160,0.00000277,-0.00060304,0.00041892,-0.00000079,
 -0.00020380,-0.00028591,-0.00000160,0.00019492,-0.00008080,-0.00000019
 ,0.00053724,-0.00005484,0.00000506,-0.00031815,-0.00032738,-0.00000878
 ,0.00006512,-0.00001400,0.00000218,-0.00010710,0.00005013,0.00000216,0
 .00048657,-0.00078338,0.00000441,-0.00240014,0.01146200,0.00000950,-0.
 20834212,0.30448866,0.00000010,0.00000017,-0.00000832,0.00000005,-0.00
 000021,0.00000259,0.00000003,0.,0.00000287,0.00000017,0.00000002,-0.00
 000776,0.00000003,0.,0.00000405,-0.00000027,-0.00000006,0.00002094,0.0
 0000007,0.00000012,-0.00002408,0.,0.00000012,-0.00000993,-0.00000002,0
 .,0.00001651,0.00000046,0.00000014,-0.00003354,-0.00000021,-0.00000039
 ,0.00002306,0.00000021,0.00000012,-0.00003781,0.00000004,0.,0.00001106
 ,-0.00060092,0.00032731,-0.00353083,0.00010809,-0.00000198,-0.00980237
 ,-0.00000002,0.00000132,-0.00070318,-0.00001738,-0.00003435,0.00611675
 ,-0.00005030,-0.00001000,0.00373643,-0.00000115,0.00001010,0.00172624,
 -0.00000191,-0.00000048,-0.00052566,0.00000279,-0.00000398,0.00008385,
 -0.00000096,-0.00000040,0.00009896,-0.00000262,0.00000226,-0.00059113,
 0.00000096,-0.00000045,-0.00004872,-0.00000033,-0.00000008,0.00012389,
 -0.00000003,-0.00000057,0.00004410,0.00002465,-0.00000151,-0.00239084,
 -0.00001658,0.00013155,-0.00472144,0.00055505,-0.00041877,0.01042432\\
 0.00000438,-0.00000599,0.00000217,-0.00000244,-0.00000303,-0.00000079,
 0.00000051,-0.00000146,-0.00000011,0.00000390,-0.00000309,-0.00000048,
 -0.00000114,-0.00000160,-0.00000011,-0.00000925,0.00000300,-0.00000527
 ,0.00000372,-0.00000068,0.00000741,-0.00000157,0.00000030,-0.00000432,
 -0.00000373,-0.00000237,-0.00000223,0.00000023,-0.00000660,0.00000137,
 -0.00000114,0.00001934,0.00000430,0.00000417,-0.00001029,-0.00000631,0
 .00000068,-0.00000035,-0.00000064,-0.00000689,0.00000936,-0.00000145,0
 .00000481,-0.00001041,0.00000050,-0.00000171,0.00000388,-0.00000018,-0
 .00000598,0.00000365,0.00000121,0.00001276,-0.00000626,-0.00000136,-0.
 00001033,-0.00000581,-0.00000400,-0.00000132,-0.00000525,0.00000348,-0
 .00000668,0.00002355,0.00000373,0.00000367,-0.00000310,-0.00000130,0.0
 0000705,-0.00002500,-0.00000611,0.00001350,0.00000984,0.00001004,-0.00
 000825,-0.00000058,0.00000044,-0.00000177,-0.00000101,-0.00000296,-0.0
 0000481,0.00000113,0.00000023,0.00000802,0.00001764,0.00000253,-0.0000
 0041,0.00000120,0.00000021\\\@


 THERE'S SMALL CHOICE IN A BOWL OF ROTTEN APPLES.
                     SHAKESPEARE
 Job cpu time:  0 days  2 hours 40 minutes 24.9 seconds.
 File lengths (MBytes):  RWF=    385 Int=      0 D2E=      0 Chk=     10 Scr=      1
 Normal termination of Gaussian 09 at Tue Dec 17 15:30:17 2013.
