 Entering Gaussian System, Link 0=g09
 Input=gaussian.gjf
 Output=gaussian.log
 Initial command:
 /opt/g09_D01_em64t/g09/l1.exe "/tmp/Gau-21708.inp" -scrdir="/tmp/"
 Entering Link 1 = /opt/g09_D01_em64t/g09/l1.exe PID=     21709.
  
 Copyright (c) 1988,1990,1992,1993,1995,1998,2003,2009,2013,
            Gaussian, Inc.  All Rights Reserved.
  
 This is part of the Gaussian(R) 09 program.  It is based on
 the Gaussian(R) 03 system (copyright 2003, Gaussian, Inc.),
 the Gaussian(R) 98 system (copyright 1998, Gaussian, Inc.),
 the Gaussian(R) 94 system (copyright 1995, Gaussian, Inc.),
 the Gaussian 92(TM) system (copyright 1992, Gaussian, Inc.),
 the Gaussian 90(TM) system (copyright 1990, Gaussian, Inc.),
 the Gaussian 88(TM) system (copyright 1988, Gaussian, Inc.),
 the Gaussian 86(TM) system (copyright 1986, Carnegie Mellon
 University), and the Gaussian 82(TM) system (copyright 1983,
 Carnegie Mellon University). Gaussian is a federally registered
 trademark of Gaussian, Inc.
  
 This software contains proprietary and confidential information,
 including trade secrets, belonging to Gaussian, Inc.
  
 This software is provided under written license and may be
 used, copied, transmitted, or stored only in accord with that
 written license.
  
 The following legend is applicable only to US Government
 contracts under FAR:
  
                    RESTRICTED RIGHTS LEGEND
  
 Use, reproduction and disclosure by the US Government is
 subject to restrictions as set forth in subparagraphs (a)
 and (c) of the Commercial Computer Software - Restricted
 Rights clause in FAR 52.227-19.
  
 Gaussian, Inc.
 340 Quinnipiac St., Bldg. 40, Wallingford CT 06492
  
  
 ---------------------------------------------------------------
 Warning -- This program may not be used in any manner that
 competes with the business of Gaussian, Inc. or will provide
 assistance to any competitor of Gaussian, Inc.  The licensee
 of this program is prohibited from giving any competitor of
 Gaussian, Inc. access to this program.  By using this program,
 the user acknowledges that Gaussian, Inc. is engaged in the
 business of creating and licensing software in the field of
 computational chemistry and represents and warrants to the
 licensee that it is not a competitor of Gaussian, Inc. and that
 it will not use this program in any manner prohibited above.
 ---------------------------------------------------------------
  

 Cite this work as:
 Gaussian 09, Revision D.01,
 M. J. Frisch, G. W. Trucks, H. B. Schlegel, G. E. Scuseria, 
 M. A. Robb, J. R. Cheeseman, G. Scalmani, V. Barone, B. Mennucci, 
 G. A. Petersson, H. Nakatsuji, M. Caricato, X. Li, H. P. Hratchian, 
 A. F. Izmaylov, J. Bloino, G. Zheng, J. L. Sonnenberg, M. Hada, 
 M. Ehara, K. Toyota, R. Fukuda, J. Hasegawa, M. Ishida, T. Nakajima, 
 Y. Honda, O. Kitao, H. Nakai, T. Vreven, J. A. Montgomery, Jr., 
 J. E. Peralta, F. Ogliaro, M. Bearpark, J. J. Heyd, E. Brothers, 
 K. N. Kudin, V. N. Staroverov, T. Keith, R. Kobayashi, J. Normand, 
 K. Raghavachari, A. Rendell, J. C. Burant, S. S. Iyengar, J. Tomasi, 
 M. Cossi, N. Rega, J. M. Millam, M. Klene, J. E. Knox, J. B. Cross, 
 V. Bakken, C. Adamo, J. Jaramillo, R. Gomperts, R. E. Stratmann, 
 O. Yazyev, A. J. Austin, R. Cammi, C. Pomelli, J. W. Ochterski, 
 R. L. Martin, K. Morokuma, V. G. Zakrzewski, G. A. Voth, 
 P. Salvador, J. J. Dannenberg, S. Dapprich, A. D. Daniels, 
 O. Farkas, J. B. Foresman, J. V. Ortiz, J. Cioslowski, 
 and D. J. Fox, Gaussian, Inc., Wallingford CT, 2013.
 
 ******************************************
 Gaussian 09:  EM64L-G09RevD.01 24-Apr-2013
                30-Apr-2014 
 ******************************************
 %chk=gaussian.chk
 %mem=1GB
 %nproc=2
 Will use up to    2 processors via shared memory.
 %nproclinda=1
 Will use up to    1 processors via Linda.
 ----------------------------------------------------------------------
 # b3lyp/6-31g* scf=(tight,maxcycle=10000) iop(9/40=20) nosymm pop=full
 ----------------------------------------------------------------------
 1/38=1/1;
 2/12=2,15=1,17=6,18=5,40=1/2;
 3/5=1,6=6,7=1,11=2,16=1,25=1,30=1,74=-5/1,2,3;
 4//1;
 5/5=2,7=10000,32=2,38=5/2;
 6/7=3,28=1/1;
 99/5=1,9=1/99;
 -------
 [0] [0]
 -------
 Symbolic Z-matrix:
 Charge =  1 Multiplicity = 1
 c                    -2.44792   0.32776   0.22302 
 n                    -1.18748   0.15256   0.09276 
 h                    -2.8246    0.95302   1.02959 
 h                    -3.13383  -0.15057  -0.47251 
 h                    -0.79617  -0.42708  -0.65333 
 h                    -0.51317   0.58385   0.72912 
 
                          Input orientation:                          
 ---------------------------------------------------------------------
 Center     Atomic      Atomic             Coordinates (Angstroms)
 Number     Number       Type             X           Y           Z
 ---------------------------------------------------------------------
      1          6           0       -2.447919    0.327759    0.223019
      2          7           0       -1.187477    0.152564    0.092759
      3          1           0       -2.824600    0.953021    1.029585
      4          1           0       -3.133828   -0.150567   -0.472512
      5          1           0       -0.796168   -0.427083   -0.653332
      6          1           0       -0.513168    0.583849    0.729122
 ---------------------------------------------------------------------
                    Distance matrix (angstroms):
                    1          2          3          4          5
     1  C    0.000000
     2  N    1.279208   0.000000
     3  H    1.087838   2.049036   0.000000
     4  H    1.087672   2.049317   1.889398   0.000000
     5  H    2.016446   1.022626   2.975136   2.360891   0.000000
     6  H    2.016180   1.022574   2.359934   2.975088   1.735872
                    6
     6  H    0.000000
 Symmetry turned off by external request.
 Stoichiometry    CH4N(1+)
 Framework group  C1[X(CH4N)]
 Deg. of freedom    12
 Full point group                 C1      NOp   1
 Rotational constants (GHZ):    152.3467473     31.2116846     25.9045634
 Standard basis: 6-31G(d) (6D, 7F)
    38 basis functions,    72 primitive gaussians,    38 cartesian basis functions
     8 alpha electrons        8 beta electrons
       nuclear repulsion energy        38.6107120845 Hartrees.
 NAtoms=    6 NActive=    6 NUniq=    6 SFac= 1.00D+00 NAtFMM=   60 NAOKFM=F Big=F
 Integral buffers will be    131072 words long.
 Raffenetti 2 integral format.
 Two-electron integral symmetry is turned off.
 One-electron integrals computed using PRISM.
 NBasis=    38 RedAO= T EigKep=  8.39D-03  NBF=    38
 NBsUse=    38 1.00D-06 EigRej= -1.00D+00 NBFU=    38
 ExpMin= 1.61D-01 ExpMax= 4.17D+03 ExpMxC= 6.27D+02 IAcc=1 IRadAn=         1 AccDes= 0.00D+00
 Harris functional with IExCor=  402 and IRadAn=       1 diagonalized for initial guess.
 HarFok:  IExCor=  402 AccDes= 0.00D+00 IRadAn=         1 IDoV= 1 UseB2=F ITyADJ=14
 ICtDFT=  3500011 ScaDFX=  1.000000  1.000000  1.000000  1.000000
 FoFCou: FMM=F IPFlag=           0 FMFlag=      100000 FMFlg1=           0
         NFxFlg=           0 DoJE=T BraDBF=F KetDBF=T FulRan=T
         wScrn=  0.000000 ICntrl=     500 IOpCl=  0 I1Cent=   200000004 NGrid=           0
         NMat0=    1 NMatS0=      1 NMatT0=    0 NMatD0=    1 NMtDS0=    0 NMtDT0=    0
 Symmetry not used in FoFCou.
 Keep R1 ints in memory in canonical form, NReq=101191747.
 Requested convergence on RMS density matrix=1.00D-08 within**** cycles.
 Requested convergence on MAX density matrix=1.00D-06.
 Requested convergence on             energy=1.00D-06.
 No special actions if energy rises.
 Integral accuracy reduced to 1.0D-05 until final iterations.
 Initial convergence to 1.0D-05 achieved.  Increase integral accuracy.
 SCF Done:  E(RB3LYP) =  -94.9741088467     A.U. after   11 cycles
            NFock= 11  Conv=0.40D-08     -V/T= 2.0105

 **********************************************************************

            Population analysis using the SCF density.

 **********************************************************************

 Alpha  occ. eigenvalues --  -14.69044 -10.54734  -1.24717  -0.95292  -0.84796
 Alpha  occ. eigenvalues --   -0.78948  -0.68237  -0.65318
 Alpha virt. eigenvalues --   -0.31943  -0.16792  -0.13534  -0.10175  -0.01441
 Alpha virt. eigenvalues --    0.03834   0.27534   0.27826   0.31839   0.38443
 Alpha virt. eigenvalues --    0.44170   0.45315   0.55757   0.61719   0.62413
 Alpha virt. eigenvalues --    0.67102   0.93890   1.08756   1.13872   1.18471
 Alpha virt. eigenvalues --    1.50869   1.58178   1.73178   1.87326   2.04738
 Alpha virt. eigenvalues --    2.10664   2.38511   2.43543   3.46246   3.80878
     Molecular Orbital Coefficients:
                           1         2         3         4         5
                           O         O         O         O         O
     Eigenvalues --   -14.69044 -10.54734  -1.24717  -0.95292  -0.84796
   1 1   C  1S          0.00008   0.99269  -0.11024  -0.16249   0.00003
   2        2S          0.00033   0.04871   0.22148   0.34575  -0.00007
   3        2PX         0.00026   0.00102   0.15074  -0.01352   0.04112
   4        2PY        -0.00004  -0.00014  -0.02096   0.00181   0.14646
   5        2PZ        -0.00003  -0.00011  -0.01556   0.00143   0.19977
   6        3S         -0.00082  -0.00936   0.08454   0.28227  -0.00008
   7        3PX        -0.00039   0.00040  -0.00886  -0.02292   0.01214
   8        3PY         0.00005  -0.00005   0.00123   0.00316   0.04321
   9        3PZ         0.00004  -0.00004   0.00092   0.00239   0.05891
  10        4XX        -0.00007  -0.00887   0.01674  -0.00322   0.00272
  11        4YY         0.00000  -0.00981  -0.01240  -0.00817  -0.00136
  12        4ZZ         0.00000  -0.00970  -0.01048  -0.00085  -0.00136
  13        4XY         0.00001  -0.00013  -0.00432   0.00071   0.00536
  14        4XZ         0.00001  -0.00007  -0.00270   0.00225   0.00750
  15        4YZ         0.00000   0.00024   0.00458   0.01390  -0.00165
  16 2   N  1S          0.99261  -0.00032  -0.19431   0.07493   0.00001
  17        2S          0.03481  -0.00020   0.41407  -0.16722  -0.00003
  18        2PX        -0.00017   0.00041  -0.07579  -0.32502   0.07561
  19        2PY         0.00002  -0.00006   0.01053   0.04520   0.27018
  20        2PZ         0.00002  -0.00004   0.00787   0.03356   0.36928
  21        3S          0.00484   0.00132   0.38591  -0.23047  -0.00006
  22        3PX        -0.00007   0.00035  -0.01583  -0.13403   0.03947
  23        3PY         0.00001  -0.00005   0.00220   0.01865   0.14104
  24        3PZ         0.00001  -0.00004   0.00166   0.01384   0.19278
  25        4XX        -0.00834  -0.00069   0.00897   0.00755   0.00281
  26        4YY        -0.00846  -0.00010  -0.00732  -0.00256  -0.00141
  27        4ZZ        -0.00844  -0.00013  -0.00020  -0.00977  -0.00141
  28        4XY        -0.00002   0.00009  -0.00122  -0.00307   0.00559
  29        4XZ        -0.00001   0.00006   0.00080  -0.00396   0.00779
  30        4YZ         0.00004  -0.00009   0.01371  -0.01299  -0.00171
  31 3   H  1S         -0.00001  -0.00035   0.03448   0.12145   0.09032
  32        2S          0.00001   0.00211  -0.00278   0.02006   0.03409
  33 4   H  1S         -0.00001  -0.00035   0.03447   0.12150  -0.09039
  34        2S          0.00001   0.00211  -0.00279   0.02007  -0.03409
  35 5   H  1S          0.00031   0.00001   0.09742  -0.13588  -0.19362
  36        2S         -0.00058  -0.00004  -0.00981  -0.02027  -0.04904
  37 6   H  1S          0.00031   0.00001   0.09745  -0.13585   0.19360
  38        2S         -0.00058  -0.00004  -0.00981  -0.02026   0.04904
                           6         7         8         9        10
                           O         O         O         V         V
     Eigenvalues --    -0.78948  -0.68237  -0.65318  -0.31943  -0.16792
   1 1   C  1S          0.05293  -0.00002  -0.00005  -0.00010  -0.01689
   2        2S         -0.10208   0.00003   0.00011   0.00021   0.05672
   3        2PX         0.42821   0.07084   0.01599   0.02662  -0.14619
   4        2PY        -0.05931   0.25484   0.26796   0.43388   0.02046
   5        2PZ        -0.04436   0.34345  -0.20342  -0.32421   0.01537
   6        3S         -0.20047   0.00011   0.00016   0.00049   0.23986
   7        3PX         0.09858   0.03533   0.00758   0.02802  -0.48627
   8        3PY        -0.01363   0.12690   0.12719   0.45783   0.06780
   9        3PZ        -0.01023   0.17127  -0.09676  -0.34226   0.05086
  10        4XX         0.01814  -0.00895   0.00246  -0.00179   0.01556
  11        4YY        -0.00976   0.00439  -0.00543   0.00395  -0.00367
  12        4ZZ        -0.01878   0.00456   0.00297  -0.00219  -0.00871
  13        4XY        -0.00638  -0.01758   0.02237  -0.01631  -0.00412
  14        4XZ        -0.00682  -0.02469  -0.01669   0.01231  -0.00420
  15        4YZ        -0.01601   0.00540  -0.00003   0.00000  -0.00871
  16 2   N  1S         -0.01916   0.00002   0.00000   0.00004  -0.11917
  17        2S          0.04683  -0.00005   0.00001  -0.00012   0.22753
  18        2PX        -0.37910  -0.03972   0.02677  -0.01999   0.17861
  19        2PY         0.05271  -0.14013   0.42486  -0.32224  -0.02480
  20        2PZ         0.03890  -0.19713  -0.31427   0.23979  -0.01826
  21        3S          0.03786  -0.00008   0.00005  -0.00015   1.65264
  22        3PX        -0.16854  -0.02617   0.01760  -0.02297   0.28973
  23        3PY         0.02343  -0.09232   0.27982  -0.36886  -0.04020
  24        3PZ         0.01727  -0.12968  -0.20693   0.27450  -0.02961
  25        4XX        -0.00224  -0.00841  -0.00130  -0.00249  -0.01453
  26        4YY        -0.00442   0.00420   0.00303   0.00564  -0.02102
  27        4ZZ        -0.00853   0.00422  -0.00173  -0.00314  -0.02503
  28        4XY        -0.00119  -0.01674  -0.01250  -0.02323  -0.00187
  29        4XZ        -0.00184  -0.02310   0.00973   0.01770  -0.00233
  30        4YZ        -0.00754   0.00508  -0.00003  -0.00002  -0.00725
  31 3   H  1S         -0.16125   0.23020  -0.00149   0.00007  -0.01602
  32        2S         -0.07596   0.12700  -0.00088   0.00021  -0.36547
  33 4   H  1S         -0.16141  -0.23004   0.00153  -0.00037  -0.01585
  34        2S         -0.07602  -0.12687   0.00093  -0.00062  -0.36437
  35 5   H  1S         -0.09594   0.14369  -0.00096  -0.00023  -0.12822
  36        2S         -0.04469   0.07774  -0.00057  -0.00036  -0.99408
  37 6   H  1S         -0.09608  -0.14366   0.00098   0.00034  -0.12837
  38        2S         -0.04474  -0.07770   0.00061   0.00060  -0.99503
                          11        12        13        14        15
                           V         V         V         V         V
     Eigenvalues --    -0.13534  -0.10175  -0.01441   0.03834   0.27534
   1 1   C  1S         -0.00011  -0.13619   0.00005  -0.06508   0.00007
   2        2S          0.00022   0.27646  -0.00007   0.00727  -0.00108
   3        2PX         0.04307  -0.15799   0.06741   0.18156  -0.04972
   4        2PY         0.15412   0.02155   0.24139  -0.02496  -0.78289
   5        2PZ         0.20934   0.01642   0.32824  -0.01854   0.58526
   6        3S          0.00121   1.98667  -0.00127   2.19113  -0.00072
   7        3PX         0.08163  -0.34301   0.22987   2.35999   0.05538
   8        3PY         0.29209   0.04666   0.82378  -0.32718   0.87797
   9        3PZ         0.39615   0.03575   1.12185  -0.24317  -0.65584
  10        4XX         0.01023  -0.01055   0.00114  -0.05020  -0.00378
  11        4YY        -0.00506   0.00078  -0.00055   0.01974   0.00839
  12        4ZZ        -0.00518  -0.00549  -0.00059   0.02776  -0.00473
  13        4XY         0.02025   0.00053   0.00219   0.01297  -0.03479
  14        4XZ         0.02818  -0.00113   0.00298   0.01141   0.02642
  15        4YZ        -0.00618  -0.01220  -0.00067   0.01285   0.00003
  16 2   N  1S          0.00012   0.05565  -0.00001   0.06319  -0.00009
  17        2S         -0.00023  -0.11183   0.00003  -0.06517   0.00004
  18        2PX         0.05593   0.00237  -0.05036   0.38604  -0.01243
  19        2PY         0.20025  -0.00040  -0.17860  -0.05377  -0.20044
  20        2PZ         0.27430  -0.00058  -0.24406  -0.03993   0.14868
  21        3S         -0.00160  -0.70018   0.00026  -2.00583   0.00021
  22        3PX         0.10336   0.13908  -0.14777   1.65132   0.00199
  23        3PY         0.36929  -0.01938  -0.52493  -0.22993   0.05884
  24        3PZ         0.50615  -0.01508  -0.71657  -0.17091  -0.04294
  25        4XX        -0.01079   0.01942  -0.00757   0.01959   0.00561
  26        4YY         0.00540   0.00519   0.00378   0.02231  -0.01324
  27        4ZZ         0.00545   0.00060   0.00378   0.01320   0.00748
  28        4XY        -0.02146  -0.00320  -0.01500  -0.00140   0.05486
  29        4XZ        -0.02980  -0.00345  -0.02077  -0.00317  -0.04157
  30        4YZ         0.00654  -0.00823   0.00457  -0.01687   0.00005
  31 3   H  1S         -0.09537  -0.12609  -0.06152   0.04123  -0.00001
  32        2S         -0.72228  -1.27036  -1.47819   0.29249   0.00003
  33 4   H  1S          0.09515  -0.12624   0.06142   0.04107   0.00021
  34        2S          0.72074  -1.27197   1.47831   0.29568   0.00075
  35 5   H  1S          0.14502   0.04543  -0.01149  -0.06876   0.00006
  36        2S          1.01068   0.32230  -0.93185  -0.59794  -0.00022
  37 6   H  1S         -0.14474   0.04569   0.01159  -0.06880  -0.00002
  38        2S         -1.00878   0.32428   0.93312  -0.59696   0.00075
                          16        17        18        19        20
                           V         V         V         V         V
     Eigenvalues --     0.27826   0.31839   0.38443   0.44170   0.45315
   1 1   C  1S         -0.02361   0.00007  -0.06202   0.00010   0.06154
   2        2S          0.45060   0.00058  -0.81291  -0.00081  -0.21613
   3        2PX         0.92181  -0.09244   0.10140   0.01428  -0.22342
   4        2PY        -0.12973  -0.32716  -0.01463   0.23973   0.03073
   5        2PZ        -0.09484  -0.44668  -0.01102  -0.17881   0.02357
   6        3S          0.46442  -0.00148   1.58231   0.00342   1.16341
   7        3PX        -0.61880   0.22617  -0.53512  -0.03502   0.73967
   8        3PY         0.08789   0.80004   0.07517  -0.58619  -0.10170
   9        3PZ         0.06374   1.08993   0.05714   0.43671  -0.07785
  10        4XX        -0.00627   0.03616  -0.10334  -0.00270   0.14706
  11        4YY         0.02434  -0.01775  -0.01396   0.00651  -0.04297
  12        4ZZ         0.01838  -0.01821  -0.09850  -0.00375  -0.03944
  13        4XY         0.00372   0.07140  -0.00274  -0.02728  -0.02992
  14        4XZ         0.00141   0.09918  -0.02206   0.02022  -0.02108
  15        4YZ        -0.01212  -0.02161  -0.16179  -0.00004   0.01345
  16 2   N  1S          0.05563  -0.00001  -0.01253  -0.00012  -0.05654
  17        2S         -0.06169   0.00029  -0.24543   0.00019   0.17737
  18        2PX        -0.02828  -0.01113   0.20441  -0.04767  -0.45524
  19        2PY         0.00355  -0.03967  -0.02795  -0.75080   0.06483
  20        2PZ         0.00314  -0.05255  -0.02130   0.55895   0.04571
  21        3S         -0.11262  -0.00122   0.42579  -0.00081  -0.48330
  22        3PX         1.07213   0.00616  -0.09858   0.06730   1.41892
  23        3PY        -0.14887   0.02230   0.01327   1.03494  -0.19946
  24        3PZ        -0.11084   0.03018   0.01018  -0.77149  -0.14441
  25        4XX         0.17970  -0.03107  -0.05365   0.00192  -0.08463
  26        4YY        -0.04918   0.01550  -0.01384  -0.00466   0.04425
  27        4ZZ        -0.06301   0.01564  -0.05264   0.00243  -0.04529
  28        4XY        -0.03977  -0.06135  -0.00141   0.01951   0.00292
  29        4XZ        -0.03248  -0.08536  -0.01037  -0.01447  -0.01899
  30        4YZ        -0.01806   0.01878  -0.07357  -0.00043  -0.16983
  31 3   H  1S         -0.03179  -0.40668  -0.58662   0.00050   0.15596
  32        2S         -0.07077  -0.28429  -0.12717  -0.00078  -0.08845
  33 4   H  1S         -0.03147   0.40793  -0.58571  -0.00043   0.15609
  34        2S         -0.07048   0.28513  -0.12637  -0.00007  -0.08904
  35 5   H  1S         -0.04233   0.40179  -0.20946  -0.00219  -0.65865
  36        2S         -0.15946  -0.21468   0.04052   0.00071   0.04299
  37 6   H  1S         -0.04299  -0.40139  -0.21033  -0.00075  -0.65848
  38        2S         -0.15874   0.21444   0.04110  -0.00036   0.04251
                          21        22        23        24        25
                           V         V         V         V         V
     Eigenvalues --     0.55757   0.61719   0.62413   0.67102   0.93890
   1 1   C  1S          0.00001  -0.00008   0.01406   0.01186   0.00978
   2        2S         -0.00077   0.00234  -0.63061  -1.30695   0.66729
   3        2PX        -0.14734   0.06048  -0.08346   0.51387  -0.00136
   4        2PY        -0.52707   0.21494   0.01236  -0.07071   0.00026
   5        2PZ        -0.71718   0.29237   0.00963  -0.05290   0.00029
   6        3S          0.00134  -0.00871   2.52611   2.35360  -3.97458
   7        3PX         0.37923  -0.19054   1.03566  -1.17200  -1.65268
   8        3PY         1.35443  -0.66822  -0.14634   0.16107   0.23083
   9        3PZ         1.84305  -0.91058  -0.11008   0.12043   0.17168
  10        4XX        -0.04172   0.00881   0.09159  -0.14331  -0.08098
  11        4YY         0.02066  -0.00430  -0.04893  -0.04534   0.05817
  12        4ZZ         0.02098  -0.00444  -0.07087   0.01620   0.09948
  13        4XY        -0.08248   0.01828  -0.02711   0.02861   0.03126
  14        4XZ        -0.11460   0.02499  -0.02502   0.03550   0.03278
  15        4YZ         0.02523  -0.00546  -0.03631   0.11209   0.07477
  16 2   N  1S         -0.00001  -0.00005   0.02272  -0.00804  -0.08141
  17        2S         -0.00019   0.00141  -0.47997  -0.10968  -1.71800
  18        2PX        -0.04364  -0.15099  -0.78380   0.19998   0.15557
  19        2PY        -0.15541  -0.54868   0.10724  -0.02796  -0.02136
  20        2PZ        -0.21358  -0.74991   0.07839  -0.02071  -0.01578
  21        3S         -0.00007  -0.00004   0.12307   0.27185   5.66906
  22        3PX        -0.00163   0.29374   1.94413  -0.59715  -1.42414
  23        3PY        -0.00643   1.07185  -0.26684   0.08352   0.19655
  24        3PZ        -0.00594   1.46472  -0.19588   0.06200   0.14578
  25        4XX         0.04512   0.01543  -0.18114  -0.03774  -0.30802
  26        4YY        -0.02242  -0.00720  -0.05818   0.00604  -0.17953
  27        4ZZ        -0.02283  -0.00742  -0.00967   0.00218  -0.25529
  28        4XY         0.08965   0.02912   0.02968   0.00612   0.00582
  29        4XZ         0.12463   0.04088   0.03326   0.00359  -0.01348
  30        4YZ        -0.02734  -0.00920   0.08552  -0.00903  -0.14297
  31 3   H  1S          0.39038  -0.34441  -0.03904   0.57300   0.11163
  32        2S         -1.73312   0.90878  -0.10662  -1.50079   0.24609
  33 4   H  1S         -0.38960   0.34408  -0.03678   0.57377   0.11267
  34        2S          1.73183  -0.90717  -0.11275  -1.50378   0.24641
  35 5   H  1S         -0.30032  -0.32692   0.46905  -0.01375  -0.15589
  36        2S          0.59285   1.28528  -1.22394   0.23993  -0.41962
  37 6   H  1S          0.30032   0.32413   0.47108  -0.01395  -0.15490
  38        2S         -0.59284  -1.27786  -1.23195   0.24002  -0.41881
                          26        27        28        29        30
                           V         V         V         V         V
     Eigenvalues --     1.08756   1.13872   1.18471   1.50869   1.58178
   1 1   C  1S          0.00002   0.00001   0.00006  -0.00034  -0.03690
   2        2S          0.00040  -0.00005   0.00110  -0.00218  -0.19963
   3        2PX        -0.00121   0.01072  -0.00016  -0.00068  -0.08358
   4        2PY        -0.00096   0.17165  -0.00019   0.00004   0.01144
   5        2PZ        -0.00787  -0.12773  -0.00019   0.00001   0.00862
   6        3S         -0.00456  -0.00006  -0.00480   0.00831   0.76531
   7        3PX        -0.45079   0.00385   0.00106  -0.00083  -0.13064
   8        3PY        -1.59797  -0.02967   0.00652   0.00318   0.01810
   9        3PZ        -2.17518   0.07916   0.00880   0.00421   0.01407
  10        4XX        -0.03291  -0.05060  -0.00900  -0.00937   0.12747
  11        4YY         0.01518   0.11434  -0.53212  -0.61750  -0.27878
  12        4ZZ         0.01782  -0.06371   0.54120   0.62646   0.08457
  13        4XY        -0.07122  -0.47151  -0.10432  -0.12048   0.01120
  14        4XZ        -0.08168   0.36021   0.03897   0.04613   0.09623
  15        4YZ         0.01855  -0.00007  -0.18929  -0.21104   0.72221
  16 2   N  1S         -0.00011  -0.00001  -0.00010  -0.00031  -0.03052
  17        2S         -0.00149  -0.00017  -0.00164  -0.00268  -0.25516
  18        2PX        -0.07328   0.00858   0.00025   0.00034   0.05177
  19        2PY        -0.26041   0.12399   0.00083   0.00027  -0.00727
  20        2PZ        -0.35972  -0.08352   0.00118   0.00040  -0.00531
  21        3S          0.00693   0.00056   0.00549   0.00753   0.69379
  22        3PX         0.45047  -0.00723  -0.00231   0.00345   0.36169
  23        3PY         1.61898  -0.02184  -0.00593  -0.00341  -0.05015
  24        3PZ         2.21019  -0.04057  -0.00815  -0.00431  -0.03728
  25        4XX        -0.07429   0.05392  -0.00979   0.01091   0.07400
  26        4YY         0.03402  -0.11877  -0.56015   0.58564  -0.27473
  27        4ZZ         0.03967   0.06480   0.56938  -0.59773   0.07006
  28        4XY        -0.14067   0.48845  -0.11031   0.11681   0.00962
  29        4XZ        -0.21202  -0.36445   0.04067  -0.04053   0.08761
  30        4YZ         0.04457  -0.00050  -0.20129   0.21790   0.62451
  31 3   H  1S          0.65030  -0.01101  -0.00188  -0.00493  -0.39323
  32        2S          0.90740  -0.01568  -0.00324  -0.00321  -0.09802
  33 4   H  1S         -0.65036   0.01130   0.00279  -0.00292  -0.39298
  34        2S         -0.90801   0.01534   0.00487   0.00062  -0.09777
  35 5   H  1S          0.66111  -0.01108  -0.00303  -0.00551  -0.41412
  36        2S          0.61285  -0.01026  -0.00285  -0.00277  -0.13923
  37 6   H  1S         -0.66140   0.01099   0.00188  -0.00314  -0.41424
  38        2S         -0.61295   0.01010   0.00163  -0.00056  -0.13941
                          31        32        33        34        35
                           V         V         V         V         V
     Eigenvalues --     1.73178   1.87326   2.04738   2.10664   2.38511
   1 1   C  1S         -0.00003  -0.05565   0.03568  -0.00011   0.02841
   2        2S         -0.00055  -0.33881   0.14642  -0.00027  -0.66058
   3        2PX         0.04467  -0.20627   0.05518   0.00777  -0.99638
   4        2PY         0.16002   0.02858  -0.00719   0.12962   0.13870
   5        2PZ         0.21787   0.02109  -0.00589  -0.09703   0.10323
   6        3S          0.00011   0.15570  -1.13653   0.00305  -2.27196
   7        3PX        -0.05934   0.29964  -0.16917   0.01555  -1.29402
   8        3PY        -0.21221  -0.04156   0.02366   0.24057   0.17899
   9        3PZ        -0.29073  -0.03090   0.01562  -0.17866   0.13261
  10        4XX        -0.22340   0.69863   0.17898   0.08040  -1.00239
  11        4YY         0.10995  -0.47635   0.14807  -0.18173   0.47248
  12        4ZZ         0.11335  -0.51030  -0.23888   0.10098   0.45487
  13        4XY        -0.44316  -0.19701  -0.08185   0.74675   0.23620
  14        4XZ        -0.61698  -0.15195  -0.15510  -0.56473   0.16908
  15        4YZ         0.13518  -0.02638  -0.72476   0.00207  -0.08256
  16 2   N  1S          0.00001  -0.00943  -0.04300   0.00011  -0.08717
  17        2S         -0.00026  -0.45067  -0.49859   0.00137  -0.15199
  18        2PX         0.01397   0.41730   0.16203  -0.00349  -0.50618
  19        2PY         0.04874  -0.05806  -0.02263  -0.04789   0.07024
  20        2PZ         0.06649  -0.04323  -0.01671   0.03565   0.05217
  21        3S         -0.00004   0.28539   1.55188  -0.00419   2.78472
  22        3PX         0.16299  -0.66632  -0.11932  -0.01893  -1.79254
  23        3PY         0.58467   0.09232   0.01635  -0.31157   0.25000
  24        3PZ         0.80038   0.06844   0.01435   0.23104   0.18628
  25        4XX         0.16072   0.44071  -0.04111   0.07952   1.21472
  26        4YY        -0.07987  -0.28127  -0.26701  -0.17757  -0.63082
  27        4ZZ        -0.08093  -0.42409   0.15624   0.09846  -0.63707
  28        4XY         0.31813  -0.14558   0.05066   0.73397  -0.29871
  29        4XZ         0.44141  -0.14049   0.13438  -0.55749  -0.21895
  30        4YZ        -0.09737  -0.23926   0.79143  -0.00178   0.04955
  31 3   H  1S         -0.45447   0.14826   0.43581  -0.00065   0.04205
  32        2S          0.33774  -0.07933   0.01264  -0.00060  -0.04233
  33 4   H  1S          0.45493   0.14722   0.43542  -0.00212   0.04067
  34        2S         -0.33803  -0.07866   0.01160   0.00092  -0.04322
  35 5   H  1S          0.63434   0.23578  -0.52698   0.00071  -0.01587
  36        2S          0.16805  -0.02356  -0.02201  -0.00001   0.18150
  37 6   H  1S         -0.63357   0.23678  -0.52817   0.00215  -0.01819
  38        2S         -0.16799  -0.02360  -0.02254  -0.00005   0.18146
                          36        37        38
                           V         V         V
     Eigenvalues --     2.43543   3.46246   3.80878
   1 1   C  1S         -0.00009  -0.08087  -0.45878
   2        2S          0.00131   0.77243   2.92615
   3        2PX         0.02412   0.28877  -0.25073
   4        2PY         0.07951  -0.04009   0.03493
   5        2PZ         0.10894  -0.02982   0.02588
   6        3S          0.00403  -1.00136   1.72755
   7        3PX        -0.10368  -0.56393  -0.11118
   8        3PY        -0.37658   0.07819   0.01518
   9        3PZ        -0.51285   0.05795   0.01170
  10        4XX         0.25558  -0.09107  -2.11979
  11        4YY        -0.12643  -0.35116  -1.74374
  12        4ZZ        -0.12916  -0.36827  -1.75612
  13        4XY         0.50242  -0.04564   0.05823
  14        4XZ         0.69795  -0.03743   0.03963
  15        4YZ        -0.15271  -0.02374  -0.03572
  16 2   N  1S          0.00017  -0.48162   0.09842
  17        2S          0.00018   0.98640  -0.08366
  18        2PX        -0.01243   0.12038  -0.31039
  19        2PY        -0.04812  -0.01673   0.04313
  20        2PZ        -0.06539  -0.01250   0.03208
  21        3S         -0.00463   3.87675  -0.92899
  22        3PX         0.11237  -0.28239  -0.10475
  23        3PY         0.39091   0.03935   0.01471
  24        3PZ         0.53432   0.02955   0.01084
  25        4XX         0.30604  -1.65025   0.66250
  26        4YY        -0.15204  -1.53165   0.27408
  27        4ZZ        -0.15382  -1.52692   0.28199
  28        4XY         0.61119   0.02019  -0.06132
  29        4XZ         0.85033   0.01589  -0.04286
  30        4YZ        -0.18658   0.00491   0.02790
  31 3   H  1S          0.41257   0.08219   0.17492
  32        2S          0.12051  -0.02712  -0.48562
  33 4   H  1S         -0.41337   0.08214   0.17512
  34        2S         -0.12058  -0.02757  -0.48581
  35 5   H  1S          0.64627   0.15342  -0.04141
  36        2S         -0.03726  -0.55302   0.15668
  37 6   H  1S         -0.64598   0.15324  -0.04146
  38        2S          0.03674  -0.55320   0.15662
     Density Matrix:
                           1         2         3         4         5
   1 1   C  1S          2.05360
   2        2S         -0.07529   0.36278
   3        2PX         0.01851  -0.02990   0.42647
   4        2PY        -0.00255   0.00412  -0.00044   0.32431
   5        2PZ        -0.00192   0.00309   0.01586   0.13047   0.40292
   6        3S         -0.15017   0.27265  -0.15384   0.02138   0.01594
   7        3PX         0.02063  -0.03986   0.08863   0.01422   0.01750
   8        3PY        -0.00286   0.00553   0.01421   0.14708   0.05387
   9        3PZ        -0.00214   0.00413   0.01747   0.05387   0.18144
  10        4XX        -0.01834   0.00062   0.01968  -0.00531  -0.00820
  11        4YY        -0.01512  -0.01011  -0.01156   0.00058   0.00591
  12        4ZZ        -0.01865  -0.00234  -0.01861   0.00619   0.00338
  13        4XY        -0.00021  -0.00013  -0.00812   0.00554  -0.01834
  14        4XZ        -0.00099   0.00174  -0.01013  -0.01840  -0.00648
  15        4YZ        -0.00675   0.01493  -0.01208   0.00402   0.00438
  16 2   N  1S          0.01598  -0.02971  -0.07649   0.01063   0.00793
  17        2S         -0.03238   0.05822   0.16948  -0.02355  -0.01757
  18        2PX         0.08302  -0.18090  -0.33728   0.06322   0.02710
  19        2PY        -0.01157   0.02520   0.06305   0.22889  -0.16604
  20        2PZ        -0.00855   0.01862   0.02717  -0.16555   0.13638
  21        3S         -0.00355   0.00398   0.15499  -0.02153  -0.01613
  22        3PX         0.02990  -0.06526  -0.14538   0.02782   0.00570
  23        3PY        -0.00418   0.00912   0.02769   0.14142  -0.12300
  24        3PZ        -0.00307   0.00669   0.00578  -0.12260   0.07059
  25        4XX        -0.00605   0.00957  -0.00042  -0.00424  -0.00418
  26        4YY         0.00178  -0.00413  -0.00535   0.00417   0.00170
  27        4ZZ         0.00205  -0.00512  -0.00668   0.00179   0.00377
  28        4XY         0.00132  -0.00242  -0.00361  -0.01341  -0.00405
  29        4XZ         0.00103  -0.00200  -0.00355  -0.00411  -0.01659
  30        4YZ         0.00023  -0.00138  -0.00139   0.00235   0.00303
  31 3   H  1S         -0.06484   0.13214  -0.09099   0.16111   0.20840
  32        2S         -0.00977   0.02836  -0.04566   0.08344   0.10810
  33 4   H  1S         -0.06487   0.13220  -0.17110  -0.12476  -0.18116
  34        2S         -0.00977   0.02836  -0.08723  -0.06495  -0.09426
  35 5   H  1S          0.01253  -0.03118  -0.04472   0.02281   0.02683
  36        2S          0.00394  -0.00923  -0.03372   0.03059   0.03825
  37 6   H  1S          0.01254  -0.03119  -0.05363  -0.00917  -0.01662
  38        2S          0.00395  -0.00924  -0.04768  -0.01927  -0.02981
                           6         7         8         9        10
   6        3S          0.25420
   7        3PX        -0.05396   0.02355
   8        3PY         0.00752   0.00909   0.06869
   9        3PZ         0.00560   0.00992   0.02424   0.08456
  10        4XX        -0.00610   0.00289  -0.00188  -0.00358   0.00158
  11        4YY        -0.00261  -0.00114  -0.00020   0.00253  -0.00066
  12        4ZZ         0.00546  -0.00315   0.00228   0.00119  -0.00093
  13        4XY         0.00223  -0.00199   0.00186  -0.00960   0.00008
  14        4XZ         0.00354  -0.00321  -0.00967  -0.00420   0.00005
  15        4YZ         0.01504  -0.00353   0.00176   0.00206  -0.00063
  16 2   N  1S          0.01551  -0.00454   0.00063   0.00048  -0.00781
  17        2S         -0.04323   0.00953  -0.00133  -0.00102   0.01664
  18        2PX        -0.04433  -0.05907   0.01136  -0.00382  -0.01295
  19        2PY         0.00623   0.01123   0.09474  -0.09923   0.00804
  20        2PZ         0.00448  -0.00374  -0.09890   0.03618   0.00544
  21        3S         -0.08007   0.01118  -0.00155  -0.00121   0.01575
  22        3PX        -0.01078  -0.02743   0.00496  -0.00494  -0.00502
  23        3PY         0.00156   0.00487   0.05942  -0.06954   0.00460
  24        3PZ         0.00105  -0.00488  -0.06928   0.01806   0.00294
  25        4XX         0.00670  -0.00149  -0.00209  -0.00220   0.00034
  26        4YY        -0.00090  -0.00031   0.00180   0.00075  -0.00045
  27        4ZZ        -0.00211  -0.00099   0.00068   0.00174  -0.00034
  28        4XY        -0.00147  -0.00131  -0.00694  -0.00265   0.00020
  29        4XZ        -0.00137  -0.00149  -0.00269  -0.00886   0.00049
  30        4YZ        -0.00199  -0.00082   0.00129   0.00166   0.00017
  31 3   H  1S          0.13909  -0.01953   0.07110   0.09373  -0.00911
  32        2S          0.04129  -0.00606   0.03715   0.04933  -0.00511
  33 4   H  1S          0.13911  -0.05643  -0.06056  -0.08580  -0.00185
  34        2S          0.04128  -0.02564  -0.03272  -0.04601  -0.00093
  35 5   H  1S         -0.02171  -0.00898   0.02149   0.02808  -0.00297
  36        2S          0.00484  -0.00341   0.01641   0.02176  -0.00348
  37 6   H  1S         -0.02175  -0.01988  -0.01748  -0.02509   0.00428
  38        2S          0.00482  -0.01201  -0.01426  -0.02015  -0.00016
                          11        12        13        14        15
  11        4YY         0.00093
  12        4ZZ         0.00084   0.00118
  13        4XY        -0.00019   0.00029   0.00180
  14        4XZ         0.00011  -0.00003   0.00032   0.00201
  15        4YZ         0.00002   0.00053  -0.00002  -0.00003   0.00101
  16 2   N  1S          0.00398   0.00468   0.00205   0.00166   0.00091
  17        2S         -0.00845  -0.01015  -0.00441  -0.00363  -0.00236
  18        2PX         0.01374   0.01597   0.00844   0.00632   0.00173
  19        2PY        -0.00861  -0.00177   0.02614  -0.00378  -0.00276
  20        2PZ        -0.00082  -0.00635  -0.00369   0.02534  -0.00357
  21        3S         -0.00657  -0.00915  -0.00414  -0.00364  -0.00409
  22        3PX         0.00534   0.00664   0.00423   0.00308   0.00111
  23        3PY        -0.00505  -0.00052   0.01699  -0.00291  -0.00169
  24        3PZ        -0.00002  -0.00364  -0.00285   0.01602  -0.00218
  25        4XX        -0.00036  -0.00020   0.00023   0.00052   0.00026
  26        4YY         0.00032   0.00039   0.00009  -0.00024   0.00005
  27        4ZZ         0.00039   0.00038  -0.00014  -0.00010   0.00005
  28        4XY         0.00008  -0.00017   0.00011   0.00134  -0.00026
  29        4XZ        -0.00025  -0.00012   0.00134   0.00094  -0.00032
  30        4YZ         0.00007   0.00007  -0.00024  -0.00031   0.00007
  31 3   H  1S          0.00211   0.00698  -0.00526  -0.00741   0.01105
  32        2S          0.00221   0.00390  -0.00312  -0.00459   0.00423
  33 4   H  1S         -0.00147   0.00330   0.00912   0.01251   0.00667
  34        2S          0.00015   0.00178   0.00516   0.00686   0.00171
  35 5   H  1S          0.00347   0.00362  -0.00698  -0.00980   0.00238
  36        2S          0.00227   0.00276  -0.00266  -0.00398   0.00178
  37 6   H  1S         -0.00012  -0.00003   0.00736   0.01014  -0.00200
  38        2S          0.00063   0.00108   0.00391   0.00512  -0.00022
                          16        17        18        19        20
  16 2   N  1S          2.05800
  17        2S         -0.11867   0.40565
  18        2PX        -0.00507   0.01042   0.52622
  19        2PY         0.00071  -0.00145   0.00380   0.55615
  20        2PZ         0.00052  -0.00107   0.00216  -0.00495   0.55338
  21        3S         -0.17636   0.40055   0.06261  -0.00868  -0.00649
  22        3PX        -0.00761   0.01593   0.22630   0.01340   0.00604
  23        3PY         0.00106  -0.00222   0.01342   0.34406  -0.03220
  24        3PZ         0.00078  -0.00164   0.00603  -0.03222   0.32587
  25        4XX        -0.01882   0.00412  -0.00354   0.00341   0.00668
  26        4YY        -0.01416  -0.00621   0.00575  -0.00021  -0.00523
  27        4ZZ        -0.01781   0.00171   0.01220  -0.00520  -0.00294
  28        4XY         0.00003  -0.00009   0.00459  -0.00334   0.01826
  29        4XZ        -0.00085   0.00182   0.00738   0.01842   0.00835
  30        4YZ        -0.00691   0.01499   0.01142  -0.00405  -0.00448
  31 3   H  1S          0.01097  -0.02720   0.03337  -0.02226  -0.02697
  32        2S          0.00702  -0.01614   0.03999  -0.02417  -0.02895
  33 4   H  1S          0.01096  -0.02718   0.04286   0.01162   0.01912
  34        2S          0.00701  -0.01613   0.04999   0.01166   0.01965
  35 5   H  1S         -0.05392   0.11716   0.10556  -0.16605  -0.21410
  36        2S          0.00133  -0.00557   0.03492  -0.05552  -0.07150
  37 6   H  1S         -0.05392   0.11716   0.18712   0.12535   0.18395
  38        2S          0.00133  -0.00557   0.06220   0.04203   0.06147
                          21        22        23        24        25
  21        3S          0.40700
  22        3PX         0.03681   0.09835
  23        3PY        -0.00510   0.01285   0.21523
  24        3PZ        -0.00382   0.00514  -0.03615   0.19459
  25        4XX         0.00319  -0.00094   0.00183   0.00397   0.00059
  26        4YY        -0.00489   0.00219   0.00019  -0.00314  -0.00010
  27        4ZZ         0.00362   0.00511  -0.00291  -0.00149  -0.00005
  28        4XY         0.00039   0.00214  -0.00250   0.01154   0.00028
  29        4XZ         0.00231   0.00382   0.01168   0.00480   0.00037
  30        4YZ         0.01600   0.00519  -0.00221  -0.00254  -0.00001
  31 3   H  1S         -0.04163   0.01573  -0.02073  -0.02636  -0.00019
  32        2S         -0.01716   0.01633  -0.01715  -0.02151  -0.00135
  33 4   H  1S         -0.04157   0.02570   0.01496   0.02209   0.00653
  34        2S         -0.01713   0.02431   0.01150   0.01730   0.00253
  35 5   H  1S          0.13056   0.04284  -0.09082  -0.11828  -0.00338
  36        2S         -0.00162   0.01285  -0.03140  -0.04097  -0.00185
  37 6   H  1S          0.13056   0.08855   0.07254   0.10475   0.00363
  38        2S         -0.00162   0.02878   0.02562   0.03667   0.00131
                          26        27        28        29        30
  26        4YY         0.00036
  27        4ZZ         0.00030   0.00052
  28        4XY        -0.00019  -0.00003   0.00096
  29        4XZ        -0.00013  -0.00014   0.00064   0.00142
  30        4YZ        -0.00002   0.00042  -0.00012  -0.00011   0.00088
  31 3   H  1S          0.00197   0.00206  -0.00711  -0.00957   0.00225
  32        2S          0.00157   0.00188  -0.00379  -0.00524   0.00172
  33 4   H  1S         -0.00137  -0.00133   0.00621   0.00894  -0.00181
  34        2S         -0.00035  -0.00007   0.00391   0.00547  -0.00063
  35 5   H  1S          0.00186   0.00601  -0.00613  -0.00809   0.00977
  36        2S          0.00144   0.00197  -0.00288  -0.00406   0.00189
  37 6   H  1S         -0.00163   0.00249   0.00777   0.01126   0.00553
  38        2S         -0.00013   0.00038   0.00339   0.00468  -0.00003
                          31        32        33        34        35
  31 3   H  1S          0.20619
  32        2S          0.09381   0.04695
  33 4   H  1S         -0.03830  -0.03539   0.20619
  34        2S         -0.03538  -0.02217   0.09376   0.04691
  35 5   H  1S          0.03584   0.03188  -0.02644  -0.01467   0.19059
  36        2S          0.03575   0.02243  -0.01808  -0.01035   0.05350
  37 6   H  1S         -0.02647  -0.01469   0.03583   0.03187  -0.04191
  38        2S         -0.01809  -0.01035   0.03573   0.02242  -0.02914
                          36        37        38
  36        2S          0.02190
  37 6   H  1S         -0.02914   0.19061
  38        2S         -0.01188   0.05350   0.02190
    Full Mulliken population analysis:
                           1         2         3         4         5
   1 1   C  1S          2.05360
   2        2S         -0.01649   0.36278
   3        2PX         0.00000   0.00000   0.42647
   4        2PY         0.00000   0.00000   0.00000   0.32431
   5        2PZ         0.00000   0.00000   0.00000   0.00000   0.40292
   6        3S         -0.02767   0.22147   0.00000   0.00000   0.00000
   7        3PX         0.00000   0.00000   0.05050   0.00000   0.00000
   8        3PY         0.00000   0.00000   0.00000   0.08380   0.00000
   9        3PZ         0.00000   0.00000   0.00000   0.00000   0.10337
  10        4XX        -0.00145   0.00044   0.00000   0.00000   0.00000
  11        4YY        -0.00120  -0.00718   0.00000   0.00000   0.00000
  12        4ZZ        -0.00148  -0.00166   0.00000   0.00000   0.00000
  13        4XY         0.00000   0.00000   0.00000   0.00000   0.00000
  14        4XZ         0.00000   0.00000   0.00000   0.00000   0.00000
  15        4YZ         0.00000   0.00000   0.00000   0.00000   0.00000
  16 2   N  1S          0.00000  -0.00059  -0.00320  -0.00006  -0.00003
  17        2S         -0.00038   0.01050   0.04581   0.00088   0.00049
  18        2PX        -0.00223   0.04152   0.09887   0.00344   0.00110
  19        2PY        -0.00004   0.00080   0.00343   0.02082   0.00093
  20        2PZ        -0.00002   0.00044   0.00110   0.00093   0.01286
  21        3S         -0.00023   0.00146   0.04488   0.00087   0.00048
  22        3PX        -0.00414   0.03703   0.03002   0.00182   0.00028
  23        3PY        -0.00008   0.00072   0.00181   0.03605   0.00083
  24        3PZ        -0.00004   0.00039   0.00028   0.00083   0.01828
  25        4XX        -0.00043   0.00352  -0.00018   0.00039   0.00029
  26        4YY         0.00001  -0.00049  -0.00093   0.00004  -0.00003
  27        4ZZ         0.00000  -0.00059  -0.00113  -0.00004   0.00003
  28        4XY        -0.00002   0.00015   0.00033   0.00265  -0.00005
  29        4XZ        -0.00001   0.00009   0.00024  -0.00005   0.00340
  30        4YZ         0.00000  -0.00001  -0.00002   0.00005   0.00009
  31 3   H  1S         -0.00214   0.03635   0.01168   0.03433   0.05728
  32        2S         -0.00090   0.01353   0.00420   0.01275   0.02130
  33 4   H  1S         -0.00215   0.03638   0.04001   0.02035   0.04296
  34        2S         -0.00090   0.01354   0.01462   0.00759   0.01602
  35 5   H  1S          0.00000  -0.00041  -0.00098  -0.00023  -0.00031
  36        2S          0.00007  -0.00125  -0.00368  -0.00153  -0.00222
  37 6   H  1S          0.00000  -0.00041  -0.00138  -0.00003  -0.00011
  38        2S          0.00007  -0.00125  -0.00610  -0.00033  -0.00100
                           6         7         8         9        10
   6        3S          0.25420
   7        3PX         0.00000   0.02355
   8        3PY         0.00000   0.00000   0.06869
   9        3PZ         0.00000   0.00000   0.00000   0.08456
  10        4XX        -0.00384   0.00000   0.00000   0.00000   0.00158
  11        4YY        -0.00165   0.00000   0.00000   0.00000  -0.00022
  12        4ZZ         0.00344   0.00000   0.00000   0.00000  -0.00031
  13        4XY         0.00000   0.00000   0.00000   0.00000   0.00000
  14        4XZ         0.00000   0.00000   0.00000   0.00000   0.00000
  15        4YZ         0.00000   0.00000   0.00000   0.00000   0.00000
  16 2   N  1S          0.00087  -0.00048  -0.00001  -0.00001  -0.00042
  17        2S         -0.01367   0.00478   0.00009   0.00005   0.00552
  18        2PX         0.00824   0.00669   0.00048  -0.00012   0.00484
  19        2PY         0.00016   0.00047   0.01745   0.00043   0.00064
  20        2PZ         0.00009  -0.00012   0.00043   0.00676   0.00032
  21        3S         -0.04579   0.00697   0.00013   0.00008   0.00596
  22        3PX         0.00599   0.00103   0.00042  -0.00031   0.00213
  23        3PY         0.00012   0.00041   0.03307   0.00061   0.00042
  24        3PZ         0.00006  -0.00031   0.00060   0.01014   0.00020
  25        4XX         0.00249  -0.00061   0.00017   0.00014   0.00016
  26        4YY        -0.00025  -0.00014  -0.00007  -0.00004  -0.00009
  27        4ZZ        -0.00059  -0.00045  -0.00004  -0.00005  -0.00006
  28        4XY         0.00003   0.00002   0.00111  -0.00001  -0.00003
  29        4XZ         0.00002   0.00001  -0.00001   0.00143  -0.00005
  30        4YZ         0.00000   0.00000   0.00002   0.00004   0.00000
  31 3   H  1S          0.05256   0.00348   0.02105   0.03580  -0.00145
  32        2S          0.02913   0.00122   0.01243   0.02130  -0.00185
  33 4   H  1S          0.05258   0.01833   0.01372   0.02827  -0.00047
  34        2S          0.02912   0.00941   0.00838   0.01713  -0.00036
  35 5   H  1S         -0.00203  -0.00173  -0.00189  -0.00286  -0.00006
  36        2S          0.00146  -0.00129  -0.00284  -0.00437  -0.00047
  37 6   H  1S         -0.00203  -0.00448  -0.00052  -0.00148   0.00011
  38        2S          0.00145  -0.00532  -0.00084  -0.00234  -0.00002
                          11        12        13        14        15
  11        4YY         0.00093
  12        4ZZ         0.00028   0.00118
  13        4XY         0.00000   0.00000   0.00180
  14        4XZ         0.00000   0.00000   0.00000   0.00201
  15        4YZ         0.00000   0.00000   0.00000   0.00000   0.00101
  16 2   N  1S          0.00001   0.00001  -0.00003  -0.00002   0.00000
  17        2S         -0.00061  -0.00071   0.00028   0.00017  -0.00002
  18        2PX        -0.00145  -0.00162   0.00077   0.00043  -0.00002
  19        2PY         0.00012  -0.00002   0.00416   0.00005   0.00005
  20        2PZ        -0.00001   0.00007   0.00004   0.00421   0.00008
  21        3S         -0.00167  -0.00231   0.00013   0.00008  -0.00001
  22        3PX        -0.00235  -0.00292   0.00011   0.00006  -0.00001
  23        3PY        -0.00015  -0.00003   0.00328   0.00002   0.00003
  24        3PZ         0.00000  -0.00008   0.00002   0.00314   0.00006
  25        4XX        -0.00007  -0.00004  -0.00003  -0.00005   0.00001
  26        4YY         0.00003   0.00001   0.00000   0.00001   0.00000
  27        4ZZ         0.00001   0.00004   0.00001   0.00000   0.00000
  28        4XY         0.00000   0.00001  -0.00003   0.00003  -0.00001
  29        4XZ         0.00001   0.00000   0.00003  -0.00030  -0.00002
  30        4YZ         0.00000   0.00000  -0.00001  -0.00002   0.00001
  31 3   H  1S          0.00049   0.00213   0.00062   0.00112   0.00277
  32        2S          0.00084   0.00155   0.00009   0.00016   0.00025
  33 4   H  1S         -0.00027   0.00085   0.00149   0.00297   0.00110
  34        2S          0.00006   0.00069   0.00020   0.00039   0.00007
  35 5   H  1S          0.00002   0.00003   0.00009   0.00015   0.00002
  36        2S          0.00022   0.00028   0.00010   0.00017   0.00003
  37 6   H  1S          0.00000   0.00000   0.00004   0.00010   0.00000
  38        2S          0.00006   0.00010   0.00006   0.00015   0.00000
                          16        17        18        19        20
  16 2   N  1S          2.05800
  17        2S         -0.02637   0.40565
  18        2PX         0.00000   0.00000   0.52622
  19        2PY         0.00000   0.00000   0.00000   0.55615
  20        2PZ         0.00000   0.00000   0.00000   0.00000   0.55338
  21        3S         -0.03031   0.31063   0.00000   0.00000   0.00000
  22        3PX         0.00000   0.00000   0.11752   0.00000   0.00000
  23        3PY         0.00000   0.00000   0.00000   0.17867   0.00000
  24        3PZ         0.00000   0.00000   0.00000   0.00000   0.16922
  25        4XX        -0.00095   0.00262   0.00000   0.00000   0.00000
  26        4YY        -0.00071  -0.00395   0.00000   0.00000   0.00000
  27        4ZZ        -0.00090   0.00109   0.00000   0.00000   0.00000
  28        4XY         0.00000   0.00000   0.00000   0.00000   0.00000
  29        4XZ         0.00000   0.00000   0.00000   0.00000   0.00000
  30        4YZ         0.00000   0.00000   0.00000   0.00000   0.00000
  31 3   H  1S          0.00000  -0.00013  -0.00027  -0.00009  -0.00012
  32        2S          0.00009  -0.00154  -0.00272  -0.00080  -0.00113
  33 4   H  1S          0.00000  -0.00013  -0.00041  -0.00002  -0.00005
  34        2S          0.00009  -0.00154  -0.00404  -0.00015  -0.00046
  35 5   H  1S         -0.00180   0.02989   0.01298   0.03025   0.05020
  36        2S          0.00010  -0.00235   0.00260   0.00613   0.01016
  37 6   H  1S         -0.00180   0.02989   0.03966   0.01699   0.03679
  38        2S          0.00010  -0.00235   0.00799   0.00345   0.00745
                          21        22        23        24        25
  21        3S          0.40700
  22        3PX         0.00000   0.09835
  23        3PY         0.00000   0.00000   0.21523
  24        3PZ         0.00000   0.00000   0.00000   0.19459
  25        4XX         0.00214   0.00000   0.00000   0.00000   0.00059
  26        4YY        -0.00327   0.00000   0.00000   0.00000  -0.00003
  27        4ZZ         0.00243   0.00000   0.00000   0.00000  -0.00002
  28        4XY         0.00000   0.00000   0.00000   0.00000   0.00000
  29        4XZ         0.00000   0.00000   0.00000   0.00000   0.00000
  30        4YZ         0.00000   0.00000   0.00000   0.00000   0.00000
  31 3   H  1S         -0.00269  -0.00221  -0.00143  -0.00212   0.00000
  32        2S         -0.00429  -0.00502  -0.00258  -0.00378  -0.00017
  33 4   H  1S         -0.00269  -0.00430  -0.00039  -0.00107   0.00014
  34        2S         -0.00428  -0.00888  -0.00065  -0.00184   0.00036
  35 5   H  1S          0.05266   0.00906   0.02846   0.04770  -0.00066
  36        2S         -0.00114   0.00265   0.00958   0.01610  -0.00072
  37 6   H  1S          0.05266   0.03228   0.01691   0.03604   0.00109
  38        2S         -0.00113   0.01022   0.00582   0.01229   0.00054
                          26        27        28        29        30
  26        4YY         0.00036
  27        4ZZ         0.00010   0.00052
  28        4XY         0.00000   0.00000   0.00096
  29        4XZ         0.00000   0.00000   0.00000   0.00142
  30        4YZ         0.00000   0.00000   0.00000   0.00000   0.00088
  31 3   H  1S          0.00001   0.00001   0.00008   0.00013   0.00002
  32        2S          0.00015   0.00018   0.00014   0.00022   0.00004
  33 4   H  1S          0.00000  -0.00001   0.00003   0.00009   0.00000
  34        2S         -0.00003  -0.00001   0.00006   0.00017   0.00000
  35 5   H  1S          0.00048   0.00202   0.00084   0.00143   0.00257
  36        2S          0.00058   0.00082   0.00008   0.00015   0.00010
  37 6   H  1S         -0.00034   0.00070   0.00137   0.00294   0.00092
  38        2S         -0.00005   0.00015   0.00012   0.00025   0.00000
                          31        32        33        34        35
  31 3   H  1S          0.20619
  32        2S          0.06175   0.04695
  33 4   H  1S         -0.00044  -0.00438   0.20619
  34        2S         -0.00437  -0.00793   0.06172   0.04691
  35 5   H  1S          0.00000   0.00034  -0.00003  -0.00071   0.19059
  36        2S          0.00038   0.00175  -0.00088  -0.00208   0.03522
  37 6   H  1S         -0.00003  -0.00071   0.00000   0.00034  -0.00093
  38        2S         -0.00088  -0.00208   0.00038   0.00175  -0.00467
                          36        37        38
  36        2S          0.02190
  37 6   H  1S         -0.00467   0.19061
  38        2S         -0.00499   0.03522   0.02190
     Gross orbital populations:
                           1
   1 1   C  1S          1.99174
   2        2S          0.75078
   3        2PX         0.75664
   4        2PY         0.54962
   5        2PZ         0.67916
   6        3S          0.56598
   7        3PX         0.11196
   8        3PY         0.25585
   9        3PZ         0.29853
  10        4XX         0.01120
  11        4YY        -0.01375
  12        4ZZ        -0.00054
  13        4XY         0.01319
  14        4XZ         0.01502
  15        4YZ         0.00539
  16 2   N  1S          1.99160
  17        2S          0.79461
  18        2PX         0.86048
  19        2PY         0.84003
  20        2PZ         0.85265
  21        3S          0.78873
  22        3PX         0.31883
  23        3PY         0.52673
  24        3PZ         0.50071
  25        4XX         0.01070
  26        4YY        -0.00864
  27        4ZZ         0.00424
  28        4XY         0.00787
  29        4XZ         0.01159
  30        4YZ         0.00466
  31 3   H  1S          0.50984
  32        2S          0.19048
  33 4   H  1S          0.50988
  34        2S          0.19039
  35 5   H  1S          0.47571
  36        2S          0.07620
  37 6   H  1S          0.47575
  38        2S          0.07618
          Condensed to atoms (all electrons):
               1          2          3          4          5          6
     1  C    4.809886   0.487751   0.372061   0.372063  -0.025484  -0.025503
     2  N    0.487751   6.455093  -0.030013  -0.029984   0.310955   0.310986
     3  H    0.372061  -0.030013   0.376641  -0.017124   0.002468  -0.003707
     4  H    0.372063  -0.029984  -0.017124   0.376543  -0.003698   0.002466
     5  H   -0.025484   0.310955   0.002468  -0.003698   0.282937  -0.015262
     6  H   -0.025503   0.310986  -0.003707   0.002466  -0.015262   0.282947
 Mulliken charges:
               1
     1  C    0.009226
     2  N   -0.504789
     3  H    0.299675
     4  H    0.299734
     5  H    0.448084
     6  H    0.448071
 Sum of Mulliken charges =   1.00000
 Mulliken charges with hydrogens summed into heavy atoms:
               1
     1  C    0.608634
     2  N    0.391366
 Electronic spatial extent (au):  <R**2>=            255.1086
 Charge=              1.0000 electrons
 Dipole moment (field-independent basis, Debye):
    X=             -8.1272    Y=              1.0684    Z=              0.6973  Tot=              8.2268
 Quadrupole moment (field-independent basis, Debye-Ang):
   XX=              8.9915   YY=            -10.0696   ZZ=             -8.7904
   XY=             -2.3377   XZ=             -1.2767   YZ=              2.5957
 Traceless Quadrupole moment (field-independent basis, Debye-Ang):
   XX=             12.2810   YY=             -6.7801   ZZ=             -5.5009
   XY=             -2.3377   XZ=             -1.2767   YZ=              2.5957
 Octapole moment (field-independent basis, Debye-Ang**2):
  XXX=              5.3944  YYY=             -7.4776  ZZZ=             -4.4057  XYY=             18.3336
  XXY=              3.6740  XXZ=              1.6475  XZZ=             16.6238  YZZ=             -1.5764
  YYZ=             -0.6386  XYZ=             -4.1284
 Hexadecapole moment (field-independent basis, Debye-Ang**3):
 XXXX=           -112.1429 YYYY=            -16.9953 ZZZZ=            -15.5973 XXXY=              0.1786
 XXXZ=              3.0565 YYYX=             15.0912 YYYZ=             -2.1936 ZZZX=              8.7434
 ZZZY=             -1.4599 XXYY=            -41.9777 XXZZ=            -38.0065 YYZZ=             -4.1736
 XXYZ=              8.6993 YYXZ=              0.9969 ZZXY=              2.9672
 N-N= 3.861071208445D+01 E-N=-2.924890949793D+02  KE= 9.399118737326D+01
 Orbital energies and kinetic energies (alpha):
                                 1                 2
   1         O               -14.690443         21.955302
   2         O               -10.547336         15.880296
   3         O                -1.247167          2.016061
   4         O                -0.952921          1.642749
   5         O                -0.847958          1.310868
   6         O                -0.789476          1.470741
   7         O                -0.682372          1.224611
   8         O                -0.653181          1.494968
   9         V                -0.319431          1.587521
  10         V                -0.167923          1.123921
  11         V                -0.135338          1.044891
  12         V                -0.101746          1.166305
  13         V                -0.014409          1.106124
  14         V                 0.038340          1.401068
  15         V                 0.275345          1.979340
  16         V                 0.278259          2.194459
  17         V                 0.318389          1.662087
  18         V                 0.384425          1.609871
  19         V                 0.441696          2.640641
  20         V                 0.453149          2.332499
  21         V                 0.557573          2.387299
  22         V                 0.617194          3.187874
  23         V                 0.624134          2.941453
  24         V                 0.671020          2.466808
  25         V                 0.938900          2.278919
  26         V                 1.087560          2.500898
  27         V                 1.138717          2.712536
  28         V                 1.184709          2.635519
  29         V                 1.508694          2.999686
  30         V                 1.581779          3.117525
  31         V                 1.731781          3.501336
  32         V                 1.873256          3.711702
  33         V                 2.047384          3.723917
  34         V                 2.106638          3.675809
  35         V                 2.385111          4.883405
  36         V                 2.435431          4.243031
  37         V                 3.462461          9.904720
  38         V                 3.808784          9.918526
 Total kinetic energy from orbitals= 9.399118737326D+01

 Test job not archived.
 1\1\GINC-EAM\SP\RB3LYP\6-31G(d)\C1H4N1(1+)\DULIKAI\30-Apr-2014\0\\# b3
 lyp/6-31g* scf=(tight,maxcycle=10000) iop(9/40=20) nosymm pop=full\\[0
 ] [0]\\1,1\C,0,-2.4479187,0.327759,0.2230187\N,0,-1.1874773,0.1525637,
 0.0927594\H,0,-2.8246003,0.9530212,1.0295854\H,0,-3.1338277,-0.1505673
 ,-0.4725116\H,0,-0.7961682,-0.4270825,-0.6533319\H,0,-0.5131678,0.5838
 49,0.7291218\\Version=EM64L-G09RevD.01\HF=-94.9741088\RMSD=3.971e-09\D
 ipole=0.1670629,-0.0235864,-0.0169198\Quadrupole=9.1306115,-5.0408151,
 -4.0897964,-1.7380269,-0.94918,1.9298583\PG=C01 [X(C1H4N1)]\\@


 YOU CAN LEAD A BOY TO COLLEGE....
 BUT YOU CANNOT MAKE HIM THINK....
           ELBERT HUBBARD
 Job cpu time:       0 days  0 hours  0 minutes  3.9 seconds.
 File lengths (MBytes):  RWF=      5 Int=      0 D2E=      0 Chk=      1 Scr=      1
 Normal termination of Gaussian 09 at Wed Apr 30 11:42:57 2014.
 Initial command:
 /opt/g09_D01_em64t/g09/l1.exe "/tmp/Gau-21708.inp" -scrdir="/tmp/"
 Entering Link 1 = /opt/g09_D01_em64t/g09/l1.exe PID=     21720.
  
 Copyright (c) 1988,1990,1992,1993,1995,1998,2003,2009,2013,
            Gaussian, Inc.  All Rights Reserved.
  
 This is part of the Gaussian(R) 09 program.  It is based on
 the Gaussian(R) 03 system (copyright 2003, Gaussian, Inc.),
 the Gaussian(R) 98 system (copyright 1998, Gaussian, Inc.),
 the Gaussian(R) 94 system (copyright 1995, Gaussian, Inc.),
 the Gaussian 92(TM) system (copyright 1992, Gaussian, Inc.),
 the Gaussian 90(TM) system (copyright 1990, Gaussian, Inc.),
 the Gaussian 88(TM) system (copyright 1988, Gaussian, Inc.),
 the Gaussian 86(TM) system (copyright 1986, Carnegie Mellon
 University), and the Gaussian 82(TM) system (copyright 1983,
 Carnegie Mellon University). Gaussian is a federally registered
 trademark of Gaussian, Inc.
  
 This software contains proprietary and confidential information,
 including trade secrets, belonging to Gaussian, Inc.
  
 This software is provided under written license and may be
 used, copied, transmitted, or stored only in accord with that
 written license.
  
 The following legend is applicable only to US Government
 contracts under FAR:
  
                    RESTRICTED RIGHTS LEGEND
  
 Use, reproduction and disclosure by the US Government is
 subject to restrictions as set forth in subparagraphs (a)
 and (c) of the Commercial Computer Software - Restricted
 Rights clause in FAR 52.227-19.
  
 Gaussian, Inc.
 340 Quinnipiac St., Bldg. 40, Wallingford CT 06492
  
  
 ---------------------------------------------------------------
 Warning -- This program may not be used in any manner that
 competes with the business of Gaussian, Inc. or will provide
 assistance to any competitor of Gaussian, Inc.  The licensee
 of this program is prohibited from giving any competitor of
 Gaussian, Inc. access to this program.  By using this program,
 the user acknowledges that Gaussian, Inc. is engaged in the
 business of creating and licensing software in the field of
 computational chemistry and represents and warrants to the
 licensee that it is not a competitor of Gaussian, Inc. and that
 it will not use this program in any manner prohibited above.
 ---------------------------------------------------------------
  

 Cite this work as:
 Gaussian 09, Revision D.01,
 M. J. Frisch, G. W. Trucks, H. B. Schlegel, G. E. Scuseria, 
 M. A. Robb, J. R. Cheeseman, G. Scalmani, V. Barone, B. Mennucci, 
 G. A. Petersson, H. Nakatsuji, M. Caricato, X. Li, H. P. Hratchian, 
 A. F. Izmaylov, J. Bloino, G. Zheng, J. L. Sonnenberg, M. Hada, 
 M. Ehara, K. Toyota, R. Fukuda, J. Hasegawa, M. Ishida, T. Nakajima, 
 Y. Honda, O. Kitao, H. Nakai, T. Vreven, J. A. Montgomery, Jr., 
 J. E. Peralta, F. Ogliaro, M. Bearpark, J. J. Heyd, E. Brothers, 
 K. N. Kudin, V. N. Staroverov, T. Keith, R. Kobayashi, J. Normand, 
 K. Raghavachari, A. Rendell, J. C. Burant, S. S. Iyengar, J. Tomasi, 
 M. Cossi, N. Rega, J. M. Millam, M. Klene, J. E. Knox, J. B. Cross, 
 V. Bakken, C. Adamo, J. Jaramillo, R. Gomperts, R. E. Stratmann, 
 O. Yazyev, A. J. Austin, R. Cammi, C. Pomelli, J. W. Ochterski, 
 R. L. Martin, K. Morokuma, V. G. Zakrzewski, G. A. Voth, 
 P. Salvador, J. J. Dannenberg, S. Dapprich, A. D. Daniels, 
 O. Farkas, J. B. Foresman, J. V. Ortiz, J. Cioslowski, 
 and D. J. Fox, Gaussian, Inc., Wallingford CT, 2013.
 
 ******************************************
 Gaussian 09:  EM64L-G09RevD.01 24-Apr-2013
                30-Apr-2014 
 ******************************************
 %chk=gaussian.chk
 %mem=1GB
 %nproc=2
 Will use up to    2 processors via shared memory.
 %nproclinda=1
 Will use up to    1 processors via Linda.
 ----------------------------------------------------------------------
 # force b3lyp/ChkBasis scf=(tight,maxcycle=10000) iop(9/40=20) nosymm 
 pop=full geom=AllCheck Guess=Read
 ----------------------------------------------------------------------
 1/10=7,29=7,30=1,38=1/1,3;
 2/12=2,15=1,40=1/2;
 3/5=7,6=2,11=2,14=-4,16=1,25=1,30=1,67=1,71=1,74=-5,116=-2/1,2,3;
 4/5=1/1;
 5/5=2,7=10000,32=2,38=6/2;
 6/7=3,28=1/1;
 7/29=1,30=1/1,2,3,16;
 1/10=7,30=1/3;
 99//99;
 Structure from the checkpoint file:  "gaussian.chk"
 -------
 [0] [0]
 -------
 Charge =  1 Multiplicity = 1
 Z-Matrix found in file.
 C,0,-2.4479187,0.327759,0.2230187
 N,0,-1.1874773,0.1525637,0.0927594
 H,0,-2.8246003,0.9530212,1.0295854
 H,0,-3.1338277,-0.1505673,-0.4725116
 H,0,-0.7961682,-0.4270825,-0.6533319
 H,0,-0.5131678,0.583849,0.7291218
 Recover connectivity data from disk.

 GradGradGradGradGradGradGradGradGradGradGradGradGradGradGradGradGradGrad
 Berny optimization.
 Initialization pass.
 Trust Radius=3.00D-01 FncErr=1.00D-07 GrdErr=1.00D-07
 Number of steps in this run=      2 maximum allowed number of steps=      2.
 GradGradGradGradGradGradGradGradGradGradGradGradGradGradGradGradGradGrad

                          Input orientation:                          
 ---------------------------------------------------------------------
 Center     Atomic      Atomic             Coordinates (Angstroms)
 Number     Number       Type             X           Y           Z
 ---------------------------------------------------------------------
      1          6           0       -2.447919    0.327759    0.223019
      2          7           0       -1.187477    0.152564    0.092759
      3          1           0       -2.824600    0.953021    1.029585
      4          1           0       -3.133828   -0.150567   -0.472512
      5          1           0       -0.796168   -0.427083   -0.653332
      6          1           0       -0.513168    0.583849    0.729122
 ---------------------------------------------------------------------
                    Distance matrix (angstroms):
                    1          2          3          4          5
     1  C    0.000000
     2  N    1.279208   0.000000
     3  H    1.087838   2.049036   0.000000
     4  H    1.087672   2.049317   1.889398   0.000000
     5  H    2.016446   1.022626   2.975136   2.360891   0.000000
     6  H    2.016180   1.022574   2.359934   2.975088   1.735872
                    6
     6  H    0.000000
 Symmetry turned off by external request.
 Stoichiometry    CH4N(1+)
 Framework group  C1[X(CH4N)]
 Deg. of freedom    12
 Full point group                 C1      NOp   1
 Rotational constants (GHZ):    152.3467473     31.2116846     25.9045634
 Basis read from chk: "gaussian.chk" (6D, 7F)
    38 basis functions,    72 primitive gaussians,    38 cartesian basis functions
     8 alpha electrons        8 beta electrons
       nuclear repulsion energy        38.6107120845 Hartrees.
 NAtoms=    6 NActive=    6 NUniq=    6 SFac= 1.00D+00 NAtFMM=   60 NAOKFM=F Big=F
 Integral buffers will be    131072 words long.
 Raffenetti 2 integral format.
 Two-electron integral symmetry is turned off.
 One-electron integrals computed using PRISM.
 NBasis=    38 RedAO= T EigKep=  8.39D-03  NBF=    38
 NBsUse=    38 1.00D-06 EigRej= -1.00D+00 NBFU=    38
 Initial guess from the checkpoint file:  "gaussian.chk"
 B after Tr=     0.000000    0.000000    0.000000
         Rot=    1.000000    0.000000    0.000000    0.000000 Ang=   0.00 deg.
 Keep R1 ints in memory in canonical form, NReq=101191747.
 Requested convergence on RMS density matrix=1.00D-08 within**** cycles.
 Requested convergence on MAX density matrix=1.00D-06.
 Requested convergence on             energy=1.00D-06.
 No special actions if energy rises.
 SCF Done:  E(RB3LYP) =  -94.9741088467     A.U. after    1 cycles
            NFock=  1  Conv=0.53D-09     -V/T= 2.0105

 **********************************************************************

            Population analysis using the SCF density.

 **********************************************************************

 Alpha  occ. eigenvalues --  -14.69044 -10.54734  -1.24717  -0.95292  -0.84796
 Alpha  occ. eigenvalues --   -0.78948  -0.68237  -0.65318
 Alpha virt. eigenvalues --   -0.31943  -0.16792  -0.13534  -0.10175  -0.01441
 Alpha virt. eigenvalues --    0.03834   0.27534   0.27826   0.31839   0.38443
 Alpha virt. eigenvalues --    0.44170   0.45315   0.55757   0.61719   0.62413
 Alpha virt. eigenvalues --    0.67102   0.93890   1.08756   1.13872   1.18471
 Alpha virt. eigenvalues --    1.50869   1.58178   1.73178   1.87326   2.04738
 Alpha virt. eigenvalues --    2.10664   2.38511   2.43543   3.46246   3.80878
     Molecular Orbital Coefficients:
                           1         2         3         4         5
                           O         O         O         O         O
     Eigenvalues --   -14.69044 -10.54734  -1.24717  -0.95292  -0.84796
   1 1   C  1S          0.00008   0.99269  -0.11024  -0.16249   0.00003
   2        2S          0.00033   0.04871   0.22148   0.34575  -0.00007
   3        2PX         0.00026   0.00102   0.15074  -0.01352   0.04112
   4        2PY        -0.00004  -0.00014  -0.02096   0.00181   0.14646
   5        2PZ        -0.00003  -0.00011  -0.01556   0.00143   0.19977
   6        3S         -0.00082  -0.00936   0.08454   0.28227  -0.00008
   7        3PX        -0.00039   0.00040  -0.00886  -0.02292   0.01214
   8        3PY         0.00005  -0.00005   0.00123   0.00316   0.04321
   9        3PZ         0.00004  -0.00004   0.00092   0.00239   0.05891
  10        4XX        -0.00007  -0.00887   0.01674  -0.00322   0.00272
  11        4YY         0.00000  -0.00981  -0.01240  -0.00817  -0.00136
  12        4ZZ         0.00000  -0.00970  -0.01048  -0.00085  -0.00136
  13        4XY         0.00001  -0.00013  -0.00432   0.00071   0.00536
  14        4XZ         0.00001  -0.00007  -0.00270   0.00225   0.00750
  15        4YZ         0.00000   0.00024   0.00458   0.01390  -0.00165
  16 2   N  1S          0.99261  -0.00032  -0.19431   0.07493   0.00001
  17        2S          0.03481  -0.00020   0.41407  -0.16722  -0.00003
  18        2PX        -0.00017   0.00041  -0.07579  -0.32502   0.07561
  19        2PY         0.00002  -0.00006   0.01053   0.04520   0.27018
  20        2PZ         0.00002  -0.00004   0.00787   0.03356   0.36928
  21        3S          0.00484   0.00132   0.38591  -0.23047  -0.00006
  22        3PX        -0.00007   0.00035  -0.01583  -0.13403   0.03947
  23        3PY         0.00001  -0.00005   0.00220   0.01865   0.14104
  24        3PZ         0.00001  -0.00004   0.00166   0.01384   0.19278
  25        4XX        -0.00834  -0.00069   0.00897   0.00755   0.00281
  26        4YY        -0.00846  -0.00010  -0.00732  -0.00256  -0.00141
  27        4ZZ        -0.00844  -0.00013  -0.00020  -0.00977  -0.00141
  28        4XY        -0.00002   0.00009  -0.00122  -0.00307   0.00559
  29        4XZ        -0.00001   0.00006   0.00080  -0.00396   0.00779
  30        4YZ         0.00004  -0.00009   0.01371  -0.01299  -0.00171
  31 3   H  1S         -0.00001  -0.00035   0.03448   0.12145   0.09032
  32        2S          0.00001   0.00211  -0.00278   0.02006   0.03409
  33 4   H  1S         -0.00001  -0.00035   0.03447   0.12150  -0.09039
  34        2S          0.00001   0.00211  -0.00279   0.02007  -0.03409
  35 5   H  1S          0.00031   0.00001   0.09742  -0.13588  -0.19362
  36        2S         -0.00058  -0.00004  -0.00981  -0.02027  -0.04904
  37 6   H  1S          0.00031   0.00001   0.09745  -0.13585   0.19360
  38        2S         -0.00058  -0.00004  -0.00981  -0.02026   0.04904
                           6         7         8         9        10
                           O         O         O         V         V
     Eigenvalues --    -0.78948  -0.68237  -0.65318  -0.31943  -0.16792
   1 1   C  1S          0.05293  -0.00002  -0.00005  -0.00010  -0.01689
   2        2S         -0.10208   0.00003   0.00011   0.00021   0.05672
   3        2PX         0.42821   0.07084   0.01599   0.02662  -0.14619
   4        2PY        -0.05931   0.25484   0.26796   0.43388   0.02046
   5        2PZ        -0.04436   0.34345  -0.20342  -0.32421   0.01537
   6        3S         -0.20047   0.00011   0.00016   0.00049   0.23986
   7        3PX         0.09858   0.03533   0.00758   0.02802  -0.48627
   8        3PY        -0.01363   0.12690   0.12719   0.45783   0.06780
   9        3PZ        -0.01023   0.17127  -0.09676  -0.34226   0.05086
  10        4XX         0.01814  -0.00895   0.00246  -0.00179   0.01556
  11        4YY        -0.00976   0.00439  -0.00543   0.00395  -0.00367
  12        4ZZ        -0.01878   0.00456   0.00297  -0.00219  -0.00871
  13        4XY        -0.00638  -0.01758   0.02237  -0.01631  -0.00412
  14        4XZ        -0.00682  -0.02469  -0.01669   0.01231  -0.00420
  15        4YZ        -0.01601   0.00540  -0.00003   0.00000  -0.00871
  16 2   N  1S         -0.01916   0.00002   0.00000   0.00004  -0.11917
  17        2S          0.04683  -0.00005   0.00001  -0.00012   0.22753
  18        2PX        -0.37910  -0.03972   0.02677  -0.01999   0.17861
  19        2PY         0.05271  -0.14013   0.42486  -0.32224  -0.02480
  20        2PZ         0.03890  -0.19713  -0.31427   0.23979  -0.01826
  21        3S          0.03786  -0.00008   0.00005  -0.00015   1.65264
  22        3PX        -0.16854  -0.02617   0.01760  -0.02297   0.28973
  23        3PY         0.02343  -0.09232   0.27982  -0.36886  -0.04020
  24        3PZ         0.01727  -0.12968  -0.20693   0.27450  -0.02961
  25        4XX        -0.00224  -0.00841  -0.00130  -0.00249  -0.01453
  26        4YY        -0.00442   0.00420   0.00303   0.00564  -0.02102
  27        4ZZ        -0.00853   0.00422  -0.00173  -0.00314  -0.02503
  28        4XY        -0.00119  -0.01674  -0.01250  -0.02323  -0.00187
  29        4XZ        -0.00184  -0.02310   0.00973   0.01770  -0.00233
  30        4YZ        -0.00754   0.00508  -0.00003  -0.00002  -0.00725
  31 3   H  1S         -0.16125   0.23020  -0.00149   0.00007  -0.01602
  32        2S         -0.07596   0.12700  -0.00088   0.00021  -0.36547
  33 4   H  1S         -0.16141  -0.23004   0.00153  -0.00037  -0.01585
  34        2S         -0.07602  -0.12687   0.00093  -0.00062  -0.36437
  35 5   H  1S         -0.09594   0.14369  -0.00096  -0.00023  -0.12822
  36        2S         -0.04469   0.07774  -0.00057  -0.00036  -0.99408
  37 6   H  1S         -0.09608  -0.14366   0.00098   0.00034  -0.12837
  38        2S         -0.04474  -0.07770   0.00061   0.00060  -0.99503
                          11        12        13        14        15
                           V         V         V         V         V
     Eigenvalues --    -0.13534  -0.10175  -0.01441   0.03834   0.27534
   1 1   C  1S         -0.00011  -0.13619   0.00005  -0.06508   0.00007
   2        2S          0.00022   0.27646  -0.00007   0.00727  -0.00108
   3        2PX         0.04307  -0.15799   0.06741   0.18156  -0.04972
   4        2PY         0.15412   0.02155   0.24139  -0.02496  -0.78289
   5        2PZ         0.20934   0.01642   0.32824  -0.01854   0.58526
   6        3S          0.00121   1.98667  -0.00127   2.19113  -0.00072
   7        3PX         0.08163  -0.34301   0.22987   2.35999   0.05538
   8        3PY         0.29209   0.04666   0.82378  -0.32718   0.87797
   9        3PZ         0.39615   0.03575   1.12185  -0.24317  -0.65584
  10        4XX         0.01023  -0.01055   0.00114  -0.05020  -0.00378
  11        4YY        -0.00506   0.00078  -0.00055   0.01974   0.00839
  12        4ZZ        -0.00518  -0.00549  -0.00059   0.02776  -0.00473
  13        4XY         0.02025   0.00053   0.00219   0.01297  -0.03479
  14        4XZ         0.02818  -0.00113   0.00298   0.01141   0.02642
  15        4YZ        -0.00618  -0.01220  -0.00067   0.01285   0.00003
  16 2   N  1S          0.00012   0.05565  -0.00001   0.06319  -0.00009
  17        2S         -0.00023  -0.11183   0.00003  -0.06517   0.00004
  18        2PX         0.05593   0.00237  -0.05036   0.38604  -0.01243
  19        2PY         0.20025  -0.00040  -0.17860  -0.05377  -0.20044
  20        2PZ         0.27430  -0.00058  -0.24406  -0.03993   0.14868
  21        3S         -0.00160  -0.70018   0.00026  -2.00583   0.00021
  22        3PX         0.10336   0.13908  -0.14777   1.65132   0.00199
  23        3PY         0.36929  -0.01938  -0.52493  -0.22993   0.05884
  24        3PZ         0.50615  -0.01508  -0.71657  -0.17091  -0.04294
  25        4XX        -0.01079   0.01942  -0.00757   0.01959   0.00561
  26        4YY         0.00540   0.00519   0.00378   0.02231  -0.01324
  27        4ZZ         0.00545   0.00060   0.00378   0.01320   0.00748
  28        4XY        -0.02146  -0.00320  -0.01500  -0.00140   0.05486
  29        4XZ        -0.02980  -0.00345  -0.02077  -0.00317  -0.04157
  30        4YZ         0.00654  -0.00823   0.00457  -0.01687   0.00005
  31 3   H  1S         -0.09537  -0.12609  -0.06152   0.04123  -0.00001
  32        2S         -0.72228  -1.27036  -1.47819   0.29249   0.00003
  33 4   H  1S          0.09515  -0.12624   0.06142   0.04107   0.00021
  34        2S          0.72074  -1.27197   1.47831   0.29568   0.00075
  35 5   H  1S          0.14502   0.04543  -0.01149  -0.06876   0.00006
  36        2S          1.01068   0.32230  -0.93185  -0.59794  -0.00022
  37 6   H  1S         -0.14474   0.04569   0.01159  -0.06880  -0.00002
  38        2S         -1.00878   0.32428   0.93312  -0.59696   0.00075
                          16        17        18        19        20
                           V         V         V         V         V
     Eigenvalues --     0.27826   0.31839   0.38443   0.44170   0.45315
   1 1   C  1S         -0.02361   0.00007  -0.06202   0.00010   0.06154
   2        2S          0.45060   0.00058  -0.81291  -0.00081  -0.21613
   3        2PX         0.92181  -0.09244   0.10140   0.01428  -0.22342
   4        2PY        -0.12973  -0.32716  -0.01463   0.23973   0.03073
   5        2PZ        -0.09484  -0.44668  -0.01102  -0.17881   0.02357
   6        3S          0.46442  -0.00148   1.58231   0.00342   1.16341
   7        3PX        -0.61880   0.22617  -0.53512  -0.03502   0.73967
   8        3PY         0.08789   0.80004   0.07517  -0.58619  -0.10170
   9        3PZ         0.06374   1.08993   0.05714   0.43671  -0.07785
  10        4XX        -0.00627   0.03616  -0.10334  -0.00270   0.14706
[...]
  27        4ZZ         0.00030   0.00052
  28        4XY        -0.00019  -0.00003   0.00096
  29        4XZ        -0.00013  -0.00014   0.00064   0.00142
  30        4YZ        -0.00002   0.00042  -0.00012  -0.00011   0.00088
  31 3   H  1S          0.00197   0.00206  -0.00711  -0.00957   0.00225
  32        2S          0.00157   0.00188  -0.00379  -0.00524   0.00172
  33 4   H  1S         -0.00137  -0.00133   0.00621   0.00894  -0.00181
  34        2S         -0.00035  -0.00007   0.00391   0.00547  -0.00063
  35 5   H  1S          0.00186   0.00601  -0.00613  -0.00809   0.00977
  36        2S          0.00144   0.00197  -0.00288  -0.00406   0.00189
  37 6   H  1S         -0.00163   0.00249   0.00777   0.01126   0.00553
  38        2S         -0.00013   0.00038   0.00339   0.00468  -0.00003
                          31        32        33        34        35
  31 3   H  1S          0.20619
  32        2S          0.09381   0.04695
  33 4   H  1S         -0.03830  -0.03539   0.20619
  34        2S         -0.03538  -0.02217   0.09376   0.04691
  35 5   H  1S          0.03584   0.03188  -0.02644  -0.01467   0.19059
  36        2S          0.03575   0.02243  -0.01808  -0.01035   0.05350
  37 6   H  1S         -0.02647  -0.01469   0.03583   0.03187  -0.04191
  38        2S         -0.01809  -0.01035   0.03573   0.02242  -0.02914
                          36        37        38
  36        2S          0.02190
  37 6   H  1S         -0.02914   0.19061
  38        2S         -0.01188   0.05350   0.02190
    Full Mulliken population analysis:
                           1         2         3         4         5
   1 1   C  1S          2.05360
   2        2S         -0.01649   0.36278
   3        2PX         0.00000   0.00000   0.42647
   4        2PY         0.00000   0.00000   0.00000   0.32431
   5        2PZ         0.00000   0.00000   0.00000   0.00000   0.40292
   6        3S         -0.02767   0.22147   0.00000   0.00000   0.00000
   7        3PX         0.00000   0.00000   0.05050   0.00000   0.00000
   8        3PY         0.00000   0.00000   0.00000   0.08380   0.00000
   9        3PZ         0.00000   0.00000   0.00000   0.00000   0.10337
  10        4XX        -0.00145   0.00044   0.00000   0.00000   0.00000
  11        4YY        -0.00120  -0.00718   0.00000   0.00000   0.00000
  12        4ZZ        -0.00148  -0.00166   0.00000   0.00000   0.00000
  13        4XY         0.00000   0.00000   0.00000   0.00000   0.00000
  14        4XZ         0.00000   0.00000   0.00000   0.00000   0.00000
  15        4YZ         0.00000   0.00000   0.00000   0.00000   0.00000
  16 2   N  1S          0.00000  -0.00059  -0.00320  -0.00006  -0.00003
  17        2S         -0.00038   0.01050   0.04581   0.00088   0.00049
  18        2PX        -0.00223   0.04152   0.09887   0.00344   0.00110
  19        2PY        -0.00004   0.00080   0.00343   0.02082   0.00093
  20        2PZ        -0.00002   0.00044   0.00110   0.00093   0.01286
  21        3S         -0.00023   0.00146   0.04488   0.00087   0.00048
  22        3PX        -0.00414   0.03703   0.03002   0.00182   0.00028
  23        3PY        -0.00008   0.00072   0.00181   0.03605   0.00083
  24        3PZ        -0.00004   0.00039   0.00028   0.00083   0.01828
  25        4XX        -0.00043   0.00352  -0.00018   0.00039   0.00029
  26        4YY         0.00001  -0.00049  -0.00093   0.00004  -0.00003
  27        4ZZ         0.00000  -0.00059  -0.00113  -0.00004   0.00003
  28        4XY        -0.00002   0.00015   0.00033   0.00265  -0.00005
  29        4XZ        -0.00001   0.00009   0.00024  -0.00005   0.00340
  30        4YZ         0.00000  -0.00001  -0.00002   0.00005   0.00009
  31 3   H  1S         -0.00214   0.03635   0.01168   0.03433   0.05728
  32        2S         -0.00090   0.01353   0.00420   0.01275   0.02130
  33 4   H  1S         -0.00215   0.03638   0.04001   0.02035   0.04296
  34        2S         -0.00090   0.01354   0.01462   0.00759   0.01602
  35 5   H  1S          0.00000  -0.00041  -0.00098  -0.00023  -0.00031
  36        2S          0.00007  -0.00125  -0.00368  -0.00153  -0.00222
  37 6   H  1S          0.00000  -0.00041  -0.00138  -0.00003  -0.00011
  38        2S          0.00007  -0.00125  -0.00610  -0.00033  -0.00100
                           6         7         8         9        10
   6        3S          0.25420
   7        3PX         0.00000   0.02355
   8        3PY         0.00000   0.00000   0.06869
   9        3PZ         0.00000   0.00000   0.00000   0.08456
  10        4XX        -0.00384   0.00000   0.00000   0.00000   0.00158
  11        4YY        -0.00165   0.00000   0.00000   0.00000  -0.00022
  12        4ZZ         0.00344   0.00000   0.00000   0.00000  -0.00031
  13        4XY         0.00000   0.00000   0.00000   0.00000   0.00000
  14        4XZ         0.00000   0.00000   0.00000   0.00000   0.00000
  15        4YZ         0.00000   0.00000   0.00000   0.00000   0.00000
  16 2   N  1S          0.00087  -0.00048  -0.00001  -0.00001  -0.00042
  17        2S         -0.01367   0.00478   0.00009   0.00005   0.00552
  18        2PX         0.00824   0.00669   0.00048  -0.00012   0.00484
  19        2PY         0.00016   0.00047   0.01745   0.00043   0.00064
  20        2PZ         0.00009  -0.00012   0.00043   0.00676   0.00032
  21        3S         -0.04579   0.00697   0.00013   0.00008   0.00596
  22        3PX         0.00599   0.00103   0.00042  -0.00031   0.00213
  23        3PY         0.00012   0.00041   0.03307   0.00061   0.00042
  24        3PZ         0.00006  -0.00031   0.00060   0.01014   0.00020
  25        4XX         0.00249  -0.00061   0.00017   0.00014   0.00016
  26        4YY        -0.00025  -0.00014  -0.00007  -0.00004  -0.00009
  27        4ZZ        -0.00059  -0.00045  -0.00004  -0.00005  -0.00006
  28        4XY         0.00003   0.00002   0.00111  -0.00001  -0.00003
  29        4XZ         0.00002   0.00001  -0.00001   0.00143  -0.00005
  30        4YZ         0.00000   0.00000   0.00002   0.00004   0.00000
  31 3   H  1S          0.05256   0.00348   0.02105   0.03580  -0.00145
  32        2S          0.02913   0.00122   0.01243   0.02130  -0.00185
  33 4   H  1S          0.05258   0.01833   0.01372   0.02827  -0.00047
  34        2S          0.02912   0.00941   0.00838   0.01713  -0.00036
  35 5   H  1S         -0.00203  -0.00173  -0.00189  -0.00286  -0.00006
  36        2S          0.00146  -0.00129  -0.00284  -0.00437  -0.00047
  37 6   H  1S         -0.00203  -0.00448  -0.00052  -0.00148   0.00011
  38        2S          0.00145  -0.00532  -0.00084  -0.00234  -0.00002
                          11        12        13        14        15
  11        4YY         0.00093
  12        4ZZ         0.00028   0.00118
  13        4XY         0.00000   0.00000   0.00180
  14        4XZ         0.00000   0.00000   0.00000   0.00201
  15        4YZ         0.00000   0.00000   0.00000   0.00000   0.00101
  16 2   N  1S          0.00001   0.00001  -0.00003  -0.00002   0.00000
  17        2S         -0.00061  -0.00071   0.00028   0.00017  -0.00002
  18        2PX        -0.00145  -0.00162   0.00077   0.00043  -0.00002
  19        2PY         0.00012  -0.00002   0.00416   0.00005   0.00005
  20        2PZ        -0.00001   0.00007   0.00004   0.00421   0.00008
  21        3S         -0.00167  -0.00231   0.00013   0.00008  -0.00001
  22        3PX        -0.00235  -0.00292   0.00011   0.00006  -0.00001
  23        3PY        -0.00015  -0.00003   0.00328   0.00002   0.00003
  24        3PZ         0.00000  -0.00008   0.00002   0.00314   0.00006
  25        4XX        -0.00007  -0.00004  -0.00003  -0.00005   0.00001
  26        4YY         0.00003   0.00001   0.00000   0.00001   0.00000
  27        4ZZ         0.00001   0.00004   0.00001   0.00000   0.00000
  28        4XY         0.00000   0.00001  -0.00003   0.00003  -0.00001
  29        4XZ         0.00001   0.00000   0.00003  -0.00030  -0.00002
  30        4YZ         0.00000   0.00000  -0.00001  -0.00002   0.00001
  31 3   H  1S          0.00049   0.00213   0.00062   0.00112   0.00277
  32        2S          0.00084   0.00155   0.00009   0.00016   0.00025
  33 4   H  1S         -0.00027   0.00085   0.00149   0.00297   0.00110
  34        2S          0.00006   0.00069   0.00020   0.00039   0.00007
  35 5   H  1S          0.00002   0.00003   0.00009   0.00015   0.00002
  36        2S          0.00022   0.00028   0.00010   0.00017   0.00003
  37 6   H  1S          0.00000   0.00000   0.00004   0.00010   0.00000
  38        2S          0.00006   0.00010   0.00006   0.00015   0.00000
                          16        17        18        19        20
  16 2   N  1S          2.05800
  17        2S         -0.02637   0.40565
  18        2PX         0.00000   0.00000   0.52622
  19        2PY         0.00000   0.00000   0.00000   0.55615
  20        2PZ         0.00000   0.00000   0.00000   0.00000   0.55338
  21        3S         -0.03031   0.31063   0.00000   0.00000   0.00000
  22        3PX         0.00000   0.00000   0.11752   0.00000   0.00000
  23        3PY         0.00000   0.00000   0.00000   0.17867   0.00000
  24        3PZ         0.00000   0.00000   0.00000   0.00000   0.16922
  25        4XX        -0.00095   0.00262   0.00000   0.00000   0.00000
  26        4YY        -0.00071  -0.00395   0.00000   0.00000   0.00000
  27        4ZZ        -0.00090   0.00109   0.00000   0.00000   0.00000
  28        4XY         0.00000   0.00000   0.00000   0.00000   0.00000
  29        4XZ         0.00000   0.00000   0.00000   0.00000   0.00000
  30        4YZ         0.00000   0.00000   0.00000   0.00000   0.00000
  31 3   H  1S          0.00000  -0.00013  -0.00027  -0.00009  -0.00012
  32        2S          0.00009  -0.00154  -0.00272  -0.00080  -0.00113
  33 4   H  1S          0.00000  -0.00013  -0.00041  -0.00002  -0.00005
  34        2S          0.00009  -0.00154  -0.00404  -0.00015  -0.00046
  35 5   H  1S         -0.00180   0.02989   0.01298   0.03025   0.05020
  36        2S          0.00010  -0.00235   0.00260   0.00613   0.01016
  37 6   H  1S         -0.00180   0.02989   0.03966   0.01699   0.03679
  38        2S          0.00010  -0.00235   0.00799   0.00345   0.00745
                          21        22        23        24        25
  21        3S          0.40700
  22        3PX         0.00000   0.09835
  23        3PY         0.00000   0.00000   0.21523
  24        3PZ         0.00000   0.00000   0.00000   0.19459
  25        4XX         0.00214   0.00000   0.00000   0.00000   0.00059
  26        4YY        -0.00327   0.00000   0.00000   0.00000  -0.00003
  27        4ZZ         0.00243   0.00000   0.00000   0.00000  -0.00002
  28        4XY         0.00000   0.00000   0.00000   0.00000   0.00000
  29        4XZ         0.00000   0.00000   0.00000   0.00000   0.00000
  30        4YZ         0.00000   0.00000   0.00000   0.00000   0.00000
  31 3   H  1S         -0.00269  -0.00221  -0.00143  -0.00212   0.00000
  32        2S         -0.00429  -0.00502  -0.00258  -0.00378  -0.00017
  33 4   H  1S         -0.00269  -0.00430  -0.00039  -0.00107   0.00014
  34        2S         -0.00428  -0.00888  -0.00065  -0.00184   0.00036
  35 5   H  1S          0.05266   0.00906   0.02846   0.04770  -0.00066
  36        2S         -0.00114   0.00265   0.00958   0.01610  -0.00072
  37 6   H  1S          0.05266   0.03228   0.01691   0.03604   0.00109
  38        2S         -0.00113   0.01022   0.00582   0.01229   0.00054
                          26        27        28        29        30
  26        4YY         0.00036
  27        4ZZ         0.00010   0.00052
  28        4XY         0.00000   0.00000   0.00096
  29        4XZ         0.00000   0.00000   0.00000   0.00142
  30        4YZ         0.00000   0.00000   0.00000   0.00000   0.00088
  31 3   H  1S          0.00001   0.00001   0.00008   0.00013   0.00002
  32        2S          0.00015   0.00018   0.00014   0.00022   0.00004
  33 4   H  1S          0.00000  -0.00001   0.00003   0.00009   0.00000
  34        2S         -0.00003  -0.00001   0.00006   0.00017   0.00000
  35 5   H  1S          0.00048   0.00202   0.00084   0.00143   0.00257
  36        2S          0.00058   0.00082   0.00008   0.00015   0.00010
  37 6   H  1S         -0.00034   0.00070   0.00137   0.00294   0.00092
  38        2S         -0.00005   0.00015   0.00012   0.00025   0.00000
                          31        32        33        34        35
  31 3   H  1S          0.20619
  32        2S          0.06175   0.04695
  33 4   H  1S         -0.00044  -0.00438   0.20619
  34        2S         -0.00437  -0.00793   0.06172   0.04691
  35 5   H  1S          0.00000   0.00034  -0.00003  -0.00071   0.19059
  36        2S          0.00038   0.00175  -0.00088  -0.00208   0.03522
  37 6   H  1S         -0.00003  -0.00071   0.00000   0.00034  -0.00093
  38        2S         -0.00088  -0.00208   0.00038   0.00175  -0.00467
                          36        37        38
  36        2S          0.02190
  37 6   H  1S         -0.00467   0.19061
  38        2S         -0.00499   0.03522   0.02190
     Gross orbital populations:
                           1
   1 1   C  1S          1.99174
   2        2S          0.75078
   3        2PX         0.75664
   4        2PY         0.54962
   5        2PZ         0.67916
   6        3S          0.56598
   7        3PX         0.11196
   8        3PY         0.25585
   9        3PZ         0.29853
  10        4XX         0.01120
  11        4YY        -0.01375
  12        4ZZ        -0.00054
  13        4XY         0.01319
  14        4XZ         0.01502
  15        4YZ         0.00539
  16 2   N  1S          1.99160
  17        2S          0.79461
  18        2PX         0.86048
  19        2PY         0.84003
  20        2PZ         0.85265
  21        3S          0.78873
  22        3PX         0.31883
  23        3PY         0.52673
  24        3PZ         0.50071
  25        4XX         0.01070
  26        4YY        -0.00864
  27        4ZZ         0.00424
  28        4XY         0.00787
  29        4XZ         0.01159
  30        4YZ         0.00466
  31 3   H  1S          0.50984
  32        2S          0.19048
  33 4   H  1S          0.50988
  34        2S          0.19039
  35 5   H  1S          0.47571
  36        2S          0.07620
  37 6   H  1S          0.47575
  38        2S          0.07618
          Condensed to atoms (all electrons):
               1          2          3          4          5          6
     1  C    4.809886   0.487751   0.372061   0.372063  -0.025484  -0.025503
     2  N    0.487751   6.455093  -0.030013  -0.029984   0.310955   0.310986
     3  H    0.372061  -0.030013   0.376640  -0.017124   0.002468  -0.003707
     4  H    0.372063  -0.029984  -0.017124   0.376543  -0.003698   0.002466
     5  H   -0.025484   0.310955   0.002468  -0.003698   0.282937  -0.015262
     6  H   -0.025503   0.310986  -0.003707   0.002466  -0.015262   0.282947
 Mulliken charges:
               1
     1  C    0.009226
     2  N   -0.504789
     3  H    0.299675
     4  H    0.299734
     5  H    0.448084
     6  H    0.448071
 Sum of Mulliken charges =   1.00000
 Mulliken charges with hydrogens summed into heavy atoms:
               1
     1  C    0.608634
     2  N    0.391366
 Electronic spatial extent (au):  <R**2>=            255.1086
 Charge=              1.0000 electrons
 Dipole moment (field-independent basis, Debye):
    X=             -8.1272    Y=              1.0684    Z=              0.6973  Tot=              8.2268
 Quadrupole moment (field-independent basis, Debye-Ang):
   XX=              8.9915   YY=            -10.0696   ZZ=             -8.7904
   XY=             -2.3377   XZ=             -1.2767   YZ=              2.5957
 Traceless Quadrupole moment (field-independent basis, Debye-Ang):
   XX=             12.2810   YY=             -6.7801   ZZ=             -5.5009
   XY=             -2.3377   XZ=             -1.2767   YZ=              2.5957
 Octapole moment (field-independent basis, Debye-Ang**2):
  XXX=              5.3944  YYY=             -7.4776  ZZZ=             -4.4057  XYY=             18.3336
  XXY=              3.6740  XXZ=              1.6475  XZZ=             16.6238  YZZ=             -1.5764
  YYZ=             -0.6386  XYZ=             -4.1284
 Hexadecapole moment (field-independent basis, Debye-Ang**3):
 XXXX=           -112.1429 YYYY=            -16.9953 ZZZZ=            -15.5973 XXXY=              0.1786
 XXXZ=              3.0565 YYYX=             15.0912 YYYZ=             -2.1936 ZZZX=              8.7434
 ZZZY=             -1.4599 XXYY=            -41.9777 XXZZ=            -38.0065 YYZZ=             -4.1736
 XXYZ=              8.6993 YYXZ=              0.9969 ZZXY=              2.9672
 N-N= 3.861071208445D+01 E-N=-2.924890950053D+02  KE= 9.399118738482D+01
 Orbital energies and kinetic energies (alpha):
                                 1                 2
   1         O               -14.690443         21.955302
   2         O               -10.547336         15.880296
   3         O                -1.247167          2.016061
   4         O                -0.952921          1.642749
   5         O                -0.847959          1.310868
   6         O                -0.789476          1.470741
   7         O                -0.682372          1.224611
   8         O                -0.653181          1.494968
   9         V                -0.319431          1.587521
  10         V                -0.167923          1.123921
  11         V                -0.135338          1.044891
  12         V                -0.101746          1.166305
  13         V                -0.014409          1.106124
  14         V                 0.038340          1.401068
  15         V                 0.275345          1.979340
  16         V                 0.278259          2.194459
  17         V                 0.318389          1.662087
  18         V                 0.384425          1.609871
  19         V                 0.441696          2.640641
  20         V                 0.453149          2.332499
  21         V                 0.557573          2.387299
  22         V                 0.617194          3.187874
  23         V                 0.624134          2.941453
  24         V                 0.671020          2.466808
  25         V                 0.938900          2.278919
  26         V                 1.087560          2.500898
  27         V                 1.138717          2.712536
  28         V                 1.184709          2.635519
  29         V                 1.508694          2.999686
  30         V                 1.581779          3.117525
  31         V                 1.731781          3.501336
  32         V                 1.873256          3.711702
  33         V                 2.047384          3.723917
  34         V                 2.106638          3.675809
  35         V                 2.385111          4.883405
  36         V                 2.435431          4.243031
  37         V                 3.462461          9.904720
  38         V                 3.808784          9.918526
 Total kinetic energy from orbitals= 9.399118738482D+01

 Test job not archived.
 1\1\GINC-EAM\SP\RB3LYP TD-FC\Gen\C1H4N1(1+)\DULIKAI\30-Apr-2014\0\\# t
 d(singlet, root=0, nstates=2) b3lyp/ChkBasis scf=(tight,maxcycle=10000
 ) iop(9/40=20) nosymm pop=full geom=AllCheck Guess=Read\\[0] [0]\\1,1\
 C,-2.4479187,0.327759,0.2230187\N,-1.1874773,0.1525637,0.0927594\H,-2.
 8246003,0.9530212,1.0295854\H,-3.1338277,-0.1505673,-0.4725116\H,-0.79
 61682,-0.4270825,-0.6533319\H,-0.5131678,0.583849,0.7291218\\Version=E
 M64L-G09RevD.01\HF=-94.9741088\RMSD=2.503e-10\PG=C01 [X(C1H4N1)]\\@


 MEN HAVE BECOME THE TOOLS OF THEIR TOOLS... THOREAU   
 Job cpu time:       0 days  0 hours  0 minutes 11.4 seconds.
 File lengths (MBytes):  RWF=      5 Int=      0 D2E=      0 Chk=      1 Scr=      1
 Normal termination of Gaussian 09 at Wed Apr 30 11:43:05 2014.
