 Entering Gaussian System, Link 0=g09
 Input=freq.com
 Output=freq.log
 Initial command:
 /opt/Gaussian/g09/l1.exe /tmp/lan/Gau-5578.inp -scrdir=/tmp/lan/
 Entering Link 1 = /opt/Gaussian/g09/l1.exe PID=      5579.
  
 Copyright (c) 1988,1990,1992,1993,1995,1998,2003,2009,2010,
            Gaussian, Inc.  All Rights Reserved.
  
 This is part of the Gaussian(R) 09 program.  It is based on
 the Gaussian(R) 03 system (copyright 2003, Gaussian, Inc.),
 the Gaussian(R) 98 system (copyright 1998, Gaussian, Inc.),
 the Gaussian(R) 94 system (copyright 1995, Gaussian, Inc.),
 the Gaussian 92(TM) system (copyright 1992, Gaussian, Inc.),
 the Gaussian 90(TM) system (copyright 1990, Gaussian, Inc.),
 the Gaussian 88(TM) system (copyright 1988, Gaussian, Inc.),
 the Gaussian 86(TM) system (copyright 1986, Carnegie Mellon
 University), and the Gaussian 82(TM) system (copyright 1983,
 Carnegie Mellon University). Gaussian is a federally registered
 trademark of Gaussian, Inc.
  
 This software contains proprietary and confidential information,
 including trade secrets, belonging to Gaussian, Inc.
  
 This software is provided under written license and may be
 used, copied, transmitted, or stored only in accord with that
 written license.
  
 The following legend is applicable only to US Government
 contracts under FAR:
  
                    RESTRICTED RIGHTS LEGEND
  
 Use, reproduction and disclosure by the US Government is
 subject to restrictions as set forth in subparagraphs (a)
 and (c) of the Commercial Computer Software - Restricted
 Rights clause in FAR 52.227-19.
  
 Gaussian, Inc.
 340 Quinnipiac St., Bldg. 40, Wallingford CT 06492
  
  
 ---------------------------------------------------------------
 Warning -- This program may not be used in any manner that
 competes with the business of Gaussian, Inc. or will provide
 assistance to any competitor of Gaussian, Inc.  The licensee
 of this program is prohibited from giving any competitor of
 Gaussian, Inc. access to this program.  By using this program,
 the user acknowledges that Gaussian, Inc. is engaged in the
 business of creating and licensing software in the field of
 computational chemistry and represents and warrants to the
 licensee that it is not a competitor of Gaussian, Inc. and that
 it will not use this program in any manner prohibited above.
 ---------------------------------------------------------------
  

 Cite this work as:
 Gaussian 09, Revision B.01,
 M. J. Frisch, G. W. Trucks, H. B. Schlegel, G. E. Scuseria, 
 M. A. Robb, J. R. Cheeseman, G. Scalmani, V. Barone, B. Mennucci, 
 G. A. Petersson, H. Nakatsuji, M. Caricato, X. Li, H. P. Hratchian, 
 A. F. Izmaylov, J. Bloino, G. Zheng, J. L. Sonnenberg, M. Hada, 
 M. Ehara, K. Toyota, R. Fukuda, J. Hasegawa, M. Ishida, T. Nakajima, 
 Y. Honda, O. Kitao, H. Nakai, T. Vreven, J. A. Montgomery, Jr., 
 J. E. Peralta, F. Ogliaro, M. Bearpark, J. J. Heyd, E. Brothers, 
 K. N. Kudin, V. N. Staroverov, T. Keith, R. Kobayashi, J. Normand, 
 K. Raghavachari, A. Rendell, J. C. Burant, S. S. Iyengar, J. Tomasi, 
 M. Cossi, N. Rega, J. M. Millam, M. Klene, J. E. Knox, J. B. Cross, 
 V. Bakken, C. Adamo, J. Jaramillo, R. Gomperts, R. E. Stratmann, 
 O. Yazyev, A. J. Austin, R. Cammi, C. Pomelli, J. W. Ochterski, 
 R. L. Martin, K. Morokuma, V. G. Zakrzewski, G. A. Voth, 
 P. Salvador, J. J. Dannenberg, S. Dapprich, A. D. Daniels, 
 O. Farkas, J. B. Foresman, J. V. Ortiz, J. Cioslowski, 
 and D. J. Fox, Gaussian, Inc., Wallingford CT, 2010.
 
 ******************************************
 Gaussian 09:  AM64L-G09RevB.01 12-Aug-2010
                16-Aug-2012 
 ******************************************
 %Nproc=4
 Will use up to    4 processors via shared memory.
 %mem=800MB
 %NoSave
 %chk=s0.chk
 ---------------------------------------
 #P freq=(HPmode) hf/3-21G geom=allcheck
 ---------------------------------------
 1/10=4,29=7,30=1,38=1/1,3;
 2/12=2,40=1/2;
 3/5=5,11=9,14=-4,16=1,25=1,30=1,71=2/1,2,3;
 4//1;
 5/5=2,38=5,98=1/2;
 8/6=4,10=90,11=11/1;
 10/13=10,15=4/2;
 11/6=3,8=1,9=11,15=111,16=1/1,2,10;
 10/6=1/2;
 6/7=2,8=2,9=2,10=2,18=1,28=1/1;
 7/8=11,10=1,25=1/1,2,3,16;
 1/10=4,30=1/3;
 99//99;
 Leave Link    1 at Thu Aug 16 14:57:29 2012, MaxMem=  104857600 cpu:       0.2
 (Enter /opt/Gaussian/g09/l101.exe)
 ---------------------
 S1_1--b3lyp---cc-pvdz
 ---------------------
 Redundant internal coordinates taken from checkpoint file:
 s0.chk
 Charge =  0 Multiplicity = 1
 C,0,0.0157756928,0.0190175441,-0.0528633872
 C,0,1.4394239573,0.0083582453,0.0021908618
 C,0,2.1066236649,-1.1831140254,0.1249479428
 N,0,1.5674542615,-2.423358174,0.2061111695
 C,0,0.2689067181,-2.4461917282,0.1586450112
 N,0,-0.4830735092,-1.3144680253,0.0373985885
 N,0,2.3538597296,1.0562664602,-0.0491343456
 C,0,3.5206671802,0.5126102839,0.0398095188
 N,0,3.4262993668,-0.8754149666,0.1499290079
 N,0,-0.3821157239,-3.621688461,0.2301142266
 O,0,-0.7747394607,0.9312343667,-0.1579057377
 H,0,4.4563719626,1.0161373163,0.0341759426
 H,0,4.1683917008,-1.5334164648,0.2318447747
 H,0,-1.4809979027,-1.3720914483,0.00376661
 H,0,-1.3731265732,-3.697479054,0.2005451977
 H,0,0.167490935,-4.4479388689,0.3183656184
 Recover connectivity data from disk.
                    Isotopes and Nuclear Properties:
 (Nuclear quadrupole moments (NQMom) in fm**2, nuclear magnetic moments (NMagM)
  in nuclear magnetons)

  Atom         1           2           3           4           5           6           7           8           9          10
 IAtWgt=          12          12          12          14          12          14          14          12          14          14
 AtmWgt=  12.0000000  12.0000000  12.0000000  14.0030740  12.0000000  14.0030740  14.0030740  12.0000000  14.0030740  14.0030740
 NucSpn=           0           0           0           2           0           2           2           0           2           2
 AtZEff=  -3.6000000  -3.6000000  -3.6000000  -4.5500000  -3.6000000  -4.5500000  -4.5500000  -3.6000000  -4.5500000  -4.5500000
 NQMom=    0.0000000   0.0000000   0.0000000   2.0440000   0.0000000   2.0440000   2.0440000   0.0000000   2.0440000   2.0440000
 NMagM=    0.0000000   0.0000000   0.0000000   0.4037610   0.0000000   0.4037610   0.4037610   0.0000000   0.4037610   0.4037610

  Atom        11          12          13          14          15          16
 IAtWgt=          16           1           1           1           1           1
 AtmWgt=  15.9949146   1.0078250   1.0078250   1.0078250   1.0078250   1.0078250
 NucSpn=           0           1           1           1           1           1
 AtZEff=  -5.6000000  -1.0000000  -1.0000000  -1.0000000  -1.0000000  -1.0000000
 NQMom=    0.0000000   0.0000000   0.0000000   0.0000000   0.0000000   0.0000000
 NMagM=    0.0000000   2.7928460   2.7928460   2.7928460   2.7928460   2.7928460
 Leave Link  101 at Thu Aug 16 14:57:29 2012, MaxMem=  104857600 cpu:       0.6
 (Enter /opt/Gaussian/g09/l103.exe)

 GradGradGradGradGradGradGradGradGradGradGradGradGradGradGradGradGradGrad
 Berny optimization.
 Initialization pass.
                           ----------------------------
                           !    Initial Parameters    !
                           ! (Angstroms and Degrees)  !
 --------------------------                            --------------------------
 ! Name  Definition              Value          Derivative Info.                !
 --------------------------------------------------------------------------------
 ! R1    R(1,2)                  1.4248         calculate D2E/DX2 analytically  !
 ! R2    R(1,6)                  1.4266         calculate D2E/DX2 analytically  !
 ! R3    R(1,11)                 1.2116         calculate D2E/DX2 analytically  !
 ! R4    R(2,3)                  1.3711         calculate D2E/DX2 analytically  !
 ! R5    R(2,7)                  1.3917         calculate D2E/DX2 analytically  !
 ! R6    R(3,4)                  1.3548         calculate D2E/DX2 analytically  !
 ! R7    R(3,9)                  1.3553         calculate D2E/DX2 analytically  !
 ! R8    R(4,5)                  1.2996         calculate D2E/DX2 analytically  !
 ! R9    R(5,6)                  1.3642         calculate D2E/DX2 analytically  !
 ! R10   R(5,10)                 1.3456         calculate D2E/DX2 analytically  !
 ! R11   R(6,14)                 1.0002         calculate D2E/DX2 analytically  !
 ! R12   R(7,8)                  1.2903         calculate D2E/DX2 analytically  !
 ! R13   R(8,9)                  1.3956         calculate D2E/DX2 analytically  !
 ! R14   R(8,12)                 1.0626         calculate D2E/DX2 analytically  !
 ! R15   R(9,13)                 0.9952         calculate D2E/DX2 analytically  !
 ! R16   R(10,15)                0.9943         calculate D2E/DX2 analytically  !
 ! R17   R(10,16)                0.9963         calculate D2E/DX2 analytically  !
 ! A1    A(2,1,6)              109.875          calculate D2E/DX2 analytically  !
 ! A2    A(2,1,11)             131.3691         calculate D2E/DX2 analytically  !
 ! A3    A(6,1,11)             118.7559         calculate D2E/DX2 analytically  !
 ! A4    A(1,2,3)              119.7497         calculate D2E/DX2 analytically  !
 ! A5    A(1,2,7)              130.5022         calculate D2E/DX2 analytically  !
 ! A6    A(3,2,7)              109.7481         calculate D2E/DX2 analytically  !
 ! A7    A(2,3,4)              127.3894         calculate D2E/DX2 analytically  !
 ! A8    A(2,3,9)              106.1523         calculate D2E/DX2 analytically  !
 ! A9    A(4,3,9)              126.4583         calculate D2E/DX2 analytically  !
 ! A10   A(3,4,5)              114.3014         calculate D2E/DX2 analytically  !
 ! A11   A(4,5,6)              122.6463         calculate D2E/DX2 analytically  !
 ! A12   A(4,5,10)             119.7895         calculate D2E/DX2 analytically  !
 ! A13   A(6,5,10)             117.5642         calculate D2E/DX2 analytically  !
 ! A14   A(1,6,5)              126.0382         calculate D2E/DX2 analytically  !
 ! A15   A(1,6,14)             113.6173         calculate D2E/DX2 analytically  !
 ! A16   A(5,6,14)             120.3445         calculate D2E/DX2 analytically  !
 ! A17   A(2,7,8)              105.9243         calculate D2E/DX2 analytically  !
 ! A18   A(7,8,9)              111.3059         calculate D2E/DX2 analytically  !
 ! A19   A(7,8,12)             126.6034         calculate D2E/DX2 analytically  !
 ! A20   A(9,8,12)             122.0907         calculate D2E/DX2 analytically  !
 ! A21   A(3,9,8)              106.8694         calculate D2E/DX2 analytically  !
 ! A22   A(3,9,13)             125.2743         calculate D2E/DX2 analytically  !
 ! A23   A(8,9,13)             127.8563         calculate D2E/DX2 analytically  !
 ! A24   A(5,10,15)            123.1742         calculate D2E/DX2 analytically  !
 ! A25   A(5,10,16)            117.5352         calculate D2E/DX2 analytically  !
 ! A26   A(15,10,16)           119.2905         calculate D2E/DX2 analytically  !
 ! D1    D(6,1,2,3)              0.0119         calculate D2E/DX2 analytically  !
 ! D2    D(6,1,2,7)            179.9851         calculate D2E/DX2 analytically  !
 ! D3    D(11,1,2,3)          -179.9741         calculate D2E/DX2 analytically  !
 ! D4    D(11,1,2,7)            -0.0009         calculate D2E/DX2 analytically  !
 ! D5    D(2,1,6,5)             -0.0046         calculate D2E/DX2 analytically  !
 ! D6    D(2,1,6,14)          -179.9767         calculate D2E/DX2 analytically  !
 ! D7    D(11,1,6,5)           179.9834         calculate D2E/DX2 analytically  !
 ! D8    D(11,1,6,14)            0.0113         calculate D2E/DX2 analytically  !
 ! D9    D(1,2,3,4)             -0.0177         calculate D2E/DX2 analytically  !
 ! D10   D(1,2,3,9)            179.9956         calculate D2E/DX2 analytically  !
 ! D11   D(7,2,3,4)           -179.9961         calculate D2E/DX2 analytically  !
 ! D12   D(7,2,3,9)              0.0172         calculate D2E/DX2 analytically  !
 ! D13   D(1,2,7,8)           -179.9935         calculate D2E/DX2 analytically  !
 ! D14   D(3,2,7,8)             -0.0181         calculate D2E/DX2 analytically  !
 ! D15   D(2,3,4,5)              0.0128         calculate D2E/DX2 analytically  !
 ! D16   D(9,3,4,5)            179.9969         calculate D2E/DX2 analytically  !
 ! D17   D(2,3,9,8)             -0.0097         calculate D2E/DX2 analytically  !
 ! D18   D(2,3,9,13)          -179.9949         calculate D2E/DX2 analytically  !
 ! D19   D(4,3,9,8)           -179.9965         calculate D2E/DX2 analytically  !
 ! D20   D(4,3,9,13)             0.0183         calculate D2E/DX2 analytically  !
 ! D21   D(3,4,5,6)             -0.0039         calculate D2E/DX2 analytically  !
 ! D22   D(3,4,5,10)           179.9933         calculate D2E/DX2 analytically  !
 ! D23   D(4,5,6,1)              0.0008         calculate D2E/DX2 analytically  !
 ! D24   D(4,5,6,14)           179.9711         calculate D2E/DX2 analytically  !
 ! D25   D(10,5,6,1)          -179.9965         calculate D2E/DX2 analytically  !
 ! D26   D(10,5,6,14)           -0.0261         calculate D2E/DX2 analytically  !
 ! D27   D(4,5,10,15)          179.8712         calculate D2E/DX2 analytically  !
 ! D28   D(4,5,10,16)           -0.0162         calculate D2E/DX2 analytically  !
 ! D29   D(6,5,10,15)           -0.1315         calculate D2E/DX2 analytically  !
 ! D30   D(6,5,10,16)          179.9812         calculate D2E/DX2 analytically  !
 ! D31   D(2,7,8,9)              0.0119         calculate D2E/DX2 analytically  !
 ! D32   D(2,7,8,12)          -179.9877         calculate D2E/DX2 analytically  !
 ! D33   D(7,8,9,3)             -0.0015         calculate D2E/DX2 analytically  !
 ! D34   D(7,8,9,13)           179.9832         calculate D2E/DX2 analytically  !
 ! D35   D(12,8,9,3)           179.9981         calculate D2E/DX2 analytically  !
 ! D36   D(12,8,9,13)           -0.0172         calculate D2E/DX2 analytically  !
 --------------------------------------------------------------------------------
 Trust Radius=3.00D-01 FncErr=1.00D-07 GrdErr=1.00D-07
 Number of steps in this run=      2 maximum allowed number of steps=      2.
 GradGradGradGradGradGradGradGradGradGradGradGradGradGradGradGradGradGrad

 Leave Link  103 at Thu Aug 16 14:57:29 2012, MaxMem=  104857600 cpu:       0.1
 (Enter /opt/Gaussian/g09/l202.exe)
                          Input orientation:                          
 ---------------------------------------------------------------------
 Center     Atomic      Atomic             Coordinates (Angstroms)
 Number     Number       Type             X           Y           Z
 ---------------------------------------------------------------------
      1          6           0        0.015776    0.019018   -0.052863
      2          6           0        1.439424    0.008358    0.002191
      3          6           0        2.106624   -1.183114    0.124948
      4          7           0        1.567454   -2.423358    0.206111
      5          6           0        0.268907   -2.446192    0.158645
      6          7           0       -0.483074   -1.314468    0.037399
      7          7           0        2.353860    1.056266   -0.049134
      8          6           0        3.520667    0.512610    0.039810
      9          7           0        3.426299   -0.875415    0.149929
     10          7           0       -0.382116   -3.621688    0.230114
     11          8           0       -0.774739    0.931234   -0.157906
     12          1           0        4.456372    1.016137    0.034176
     13          1           0        4.168392   -1.533416    0.231845
     14          1           0       -1.480998   -1.372091    0.003767
     15          1           0       -1.373127   -3.697479    0.200545
     16          1           0        0.167491   -4.447939    0.318366
 ---------------------------------------------------------------------
                    Distance matrix (angstroms):
                    1          2          3          4          5
     1  C    0.000000
     2  C    1.424752   0.000000
     3  C    2.418343   1.371069   0.000000
     4  N    2.905163   2.443608   1.354805   0.000000
     5  C    2.487181   2.723858   2.230180   1.299615   0.000000
     6  N    1.426598   2.333903   2.594504   2.337256   1.364175
     7  N    2.557838   1.391739   2.259702   3.576503   4.081350
     8  C    3.540690   2.141789   2.209581   3.530242   4.398020
     9  N    3.531686   2.179577   1.355303   2.419626   3.526548
    10  N    3.673300   4.067824   3.485904   2.288536   1.345634
    11  O    1.211647   2.404132   3.585070   4.107514   3.549142
    12  H    4.552002   3.180977   3.219668   4.495057   5.434895
    13  H    4.442446   3.142781   2.094045   2.749097   4.005559
    14  H    2.044192   3.230249   3.594638   3.230970   2.059088
    15  H    3.975627   4.656502   4.293764   3.204751   2.064885
    16  H    4.484922   4.645036   3.802200   2.464026   2.010668
                    6          7          8          9         10
     6  N    0.000000
     7  N    3.698116   0.000000
     8  C    4.400927   1.290315   0.000000
     9  N    3.935559   2.218366   1.395581   0.000000
    10  N    2.317455   5.426491   5.688616   4.696006   0.000000
    11  O    2.272970   3.132985   4.320284   4.583391   4.586264
    12  H    5.461671   2.104545   1.062598   2.156947   6.705131
    13  H    4.660673   3.174576   2.154681   0.995177   5.006795
    14  H    1.000152   4.539367   5.345096   4.934533   2.513854
    15  H    2.549030   6.045731   6.457546   5.567863   0.994345
    16  H    3.212603   5.933931   5.994033   4.838505   0.996266
                   11         12         13         14         15
    11  O    0.000000
    12  H    5.235325   0.000000
    13  H    5.537234   2.573369   0.000000
    14  H    2.414591   6.399760   5.656293   0.000000
    15  H    4.680977   7.498594   5.949166   2.336190   0.000000
    16  H    5.481801   6.952078   4.950670   3.503901   1.717723
                   16
    16  H    0.000000
 Stoichiometry    C5H5N5O
 Framework group  C1[X(C5H5N5O)]
 Deg. of freedom    42
 Full point group                 C1      NOp   1
 Largest Abelian subgroup         C1      NOp   1
 Largest concise Abelian subgroup C1      NOp   1
                         Standard orientation:                         
 ---------------------------------------------------------------------
 Center     Atomic      Atomic             Coordinates (Angstroms)
 Number     Number       Type             X           Y           Z
 ---------------------------------------------------------------------
      1          6           0       -0.222152    1.452588    0.000099
      2          6           0        0.834794    0.497190    0.000182
      3          6           0        0.541276   -0.842093   -0.000049
      4          7           0       -0.686316   -1.415255   -0.000030
      5          6           0       -1.672032   -0.568282   -0.000024
      6          7           0       -1.481601    0.782536    0.000044
      7          7           0        2.214984    0.676116   -0.000019
      8          6           0        2.725587   -0.508872    0.000037
      9          7           0        1.732184   -1.489075    0.000000
     10          7           0       -2.940170   -1.018346   -0.000143
     11          8           0       -0.206460    2.664133   -0.000151
     12          1           0        3.759717   -0.753187    0.000109
     13          1           0        1.849336   -2.477332   -0.000203
     14          1           0       -2.265751    1.403352   -0.000388
     15          1           0       -3.731291   -0.415981    0.001728
     16          1           0       -3.078744   -2.004927   -0.000482
 ---------------------------------------------------------------------
 Rotational constants (GHZ):      1.9534537      1.1196776      0.7117296
 Leave Link  202 at Thu Aug 16 14:57:29 2012, MaxMem=  104857600 cpu:       0.0
 (Enter /opt/Gaussian/g09/l301.exe)
 Standard basis: 3-21G (6D, 7F)
 Ernie: Thresh=  0.10000D-02 Tol=  0.10000D-05 Strict=F.
 There are   109 symmetry adapted basis functions of A   symmetry.
 Integral buffers will be    131072 words long.
 Raffenetti 1 integral format.
 Two-electron integral symmetry is turned on.
   109 basis functions,   180 primitive gaussians,   109 cartesian basis functions
    39 alpha electrons       39 beta electrons
       nuclear repulsion energy       598.0623588115 Hartrees.
 IExCor=    0 DFT=F Ex=HF Corr=None ExCW=0 ScaHFX=  1.000000
 ScaDFX=  1.000000  1.000000  1.000000  1.000000 ScalE2=  1.000000  1.000000
 IRadAn=      0 IRanWt=     -1 IRanGd=            0 ICorTp=0
 NAtoms=   16 NActive=   16 NUniq=   16 SFac= 1.00D+00 NAtFMM=   50 NAOKFM=F Big=F
 Leave Link  301 at Thu Aug 16 14:57:29 2012, MaxMem=  104857600 cpu:       0.4
 (Enter /opt/Gaussian/g09/l302.exe)
 NPDir=0 NMtPBC=     1 NCelOv=     1 NCel=       1 NClECP=     1 NCelD=      1
         NCelK=      1 NCelE2=     1 NClLst=     1 CellRange=     0.0.
 One-electron integrals computed using PRISM.
 NBasis=   109 RedAO= T  NBF=   109
 NBsUse=   109 1.00D-06 NBFU=   109
 Leave Link  302 at Thu Aug 16 14:57:29 2012, MaxMem=  104857600 cpu:       0.8
 (Enter /opt/Gaussian/g09/l303.exe)
 DipDrv:  MaxL=1.
 Leave Link  303 at Thu Aug 16 14:57:29 2012, MaxMem=  104857600 cpu:       0.3
 (Enter /opt/Gaussian/g09/l401.exe)
 Harris functional with IExCor=  205 diagonalized for initial guess.
 ExpMin= 1.83D-01 ExpMax= 3.22D+02 ExpMxC= 3.22D+02 IAcc=1 IRadAn=         1 AccDes= 0.00D+00
 HarFok:  IExCor=  205 AccDes= 0.00D+00 IRadAn=         1 IDoV= 1
 ScaDFX=  1.000000  1.000000  1.000000  1.000000
 FoFCou: FMM=F IPFlag=           0 FMFlag=      100000 FMFlg1=           0
         NFxFlg=           0 DoJE=T BraDBF=F KetDBF=T FulRan=T
         Omega=  0.000000  0.000000  1.000000  0.000000  0.000000 ICntrl=     500 IOpCl=  0
         NMat0=    1 NMatS0=    1 NMatT0=    0 NMatD0=    1 NMtDS0=    0 NMtDT0=    0
         I1Cent=           4 NGrid=           0.
 Petite list used in FoFCou.
 Harris En= -536.811700109597    
 Initial guess orbital symmetries:
       Occupied  (A) (A) (A) (A) (A) (A) (A) (A) (A) (A) (A) (A)
                 (A) (A) (A) (A) (A) (A) (A) (A) (A) (A) (A) (A)
                 (A) (A) (A) (A) (A) (A) (A) (A) (A) (A) (A) (A)
                 (A) (A) (A)
       Virtual   (A) (A) (A) (A) (A) (A) (A) (A) (A) (A) (A) (A)
                 (A) (A) (A) (A) (A) (A) (A) (A) (A) (A) (A) (A)
                 (A) (A) (A) (A) (A) (A) (A) (A) (A) (A) (A) (A)
                 (A) (A) (A) (A) (A) (A) (A) (A) (A) (A) (A) (A)
                 (A) (A) (A) (A) (A) (A) (A) (A) (A) (A) (A) (A)
                 (A) (A) (A) (A) (A) (A) (A) (A) (A) (A)
 The electronic state of the initial guess is 1-A.
 Leave Link  401 at Thu Aug 16 14:57:30 2012, MaxMem=  104857600 cpu:       1.6
 (Enter /opt/Gaussian/g09/l502.exe)
 Closed shell SCF:
 Requested convergence on RMS density matrix=1.00D-08 within 128 cycles.
 Requested convergence on MAX density matrix=1.00D-06.
 Requested convergence on             energy=1.00D-06.
 No special actions if energy rises.
 Using DIIS extrapolation, IDIIS=  1040.
 Integral symmetry usage will be decided dynamically.
 Keep R1 ints in memory in canonical form, NReq=18828305.
 IEnd=       55281 IEndB=       55281 NGot=   104857600 MDV=    86857912
 LenX=    86857912 LenY=    86845590
 Symmetry not used in FoFDir.
 MinBra= 0 MaxBra= 1 Meth= 1.
 IRaf=       0 NMat=   1 IRICut=       1 DoRegI=T DoRafI=F ISym2E= 0 JSym2E=0.

 Cycle   1  Pass 1  IDiag  1:
 E= -536.101499500523    
 DIIS: error= 5.68D-02 at cycle   1 NSaved=   1.
 NSaved= 1 IEnMin= 1 EnMin= -536.101499500523     IErMin= 1 ErrMin= 5.68D-02
 ErrMax= 5.68D-02 EMaxC= 1.00D-01 BMatC= 4.55D-01 BMatP= 4.55D-01
 IDIUse=3 WtCom= 4.32D-01 WtEn= 5.68D-01
 Coeff-Com:  0.100D+01
 Coeff-En:   0.100D+01
 Coeff:      0.100D+01
 Gap=     0.457 Goal=   None    Shift=    0.000
 GapD=    0.457 DampG=2.000 DampE=0.500 DampFc=1.0000 IDamp=-1.
 RMSDP=7.73D-03 MaxDP=1.10D-01              OVMax= 1.25D-01

 Cycle   2  Pass 1  IDiag  1:
 E= -536.315050664582     Delta-E=       -0.213551164059 Rises=F Damp=F
 DIIS: error= 2.46D-02 at cycle   2 NSaved=   2.
 NSaved= 2 IEnMin= 2 EnMin= -536.315050664582     IErMin= 2 ErrMin= 2.46D-02
 ErrMax= 2.46D-02 EMaxC= 1.00D-01 BMatC= 6.91D-02 BMatP= 4.55D-01
 IDIUse=3 WtCom= 7.54D-01 WtEn= 2.46D-01
 Coeff-Com:  0.213D+00 0.787D+00
 Coeff-En:   0.000D+00 0.100D+01
 Coeff:      0.160D+00 0.840D+00
 Gap=     0.468 Goal=   None    Shift=    0.000
 RMSDP=3.67D-03 MaxDP=6.59D-02 DE=-2.14D-01 OVMax= 5.92D-02

 Cycle   3  Pass 1  IDiag  1:
 E= -536.355182935409     Delta-E=       -0.040132270827 Rises=F Damp=F
 DIIS: error= 1.08D-02 at cycle   3 NSaved=   3.
 NSaved= 3 IEnMin= 3 EnMin= -536.355182935409     IErMin= 3 ErrMin= 1.08D-02
 ErrMax= 1.08D-02 EMaxC= 1.00D-01 BMatC= 1.24D-02 BMatP= 6.91D-02
 IDIUse=3 WtCom= 8.92D-01 WtEn= 1.08D-01
 Coeff-Com: -0.131D-01 0.277D+00 0.736D+00
 Coeff-En:   0.000D+00 0.000D+00 0.100D+01
 Coeff:     -0.117D-01 0.247D+00 0.765D+00
 Gap=     0.453 Goal=   None    Shift=    0.000
 RMSDP=1.28D-03 MaxDP=2.24D-02 DE=-4.01D-02 OVMax= 2.53D-02

 Cycle   4  Pass 1  IDiag  1:
 E= -536.364467546852     Delta-E=       -0.009284611443 Rises=F Damp=F
 DIIS: error= 3.07D-03 at cycle   4 NSaved=   4.
 NSaved= 4 IEnMin= 4 EnMin= -536.364467546852     IErMin= 4 ErrMin= 3.07D-03
 ErrMax= 3.07D-03 EMaxC= 1.00D-01 BMatC= 7.09D-04 BMatP= 1.24D-02
 IDIUse=3 WtCom= 9.69D-01 WtEn= 3.07D-02
 Coeff-Com: -0.119D-01 0.307D-01 0.239D+00 0.742D+00
 Coeff-En:   0.000D+00 0.000D+00 0.000D+00 0.100D+01
 Coeff:     -0.115D-01 0.297D-01 0.232D+00 0.750D+00
 Gap=     0.448 Goal=   None    Shift=    0.000
 RMSDP=3.73D-04 MaxDP=6.93D-03 DE=-9.28D-03 OVMax= 6.10D-03

 Cycle   5  Pass 1  IDiag  1:
 E= -536.365124084647     Delta-E=       -0.000656537795 Rises=F Damp=F
 DIIS: error= 7.87D-04 at cycle   5 NSaved=   5.
 NSaved= 5 IEnMin= 5 EnMin= -536.365124084647     IErMin= 5 ErrMin= 7.87D-04
 ErrMax= 7.87D-04 EMaxC= 1.00D-01 BMatC= 3.01D-05 BMatP= 7.09D-04
 IDIUse=3 WtCom= 9.92D-01 WtEn= 7.87D-03
 Coeff-Com:  0.229D-02-0.218D-01-0.786D-01-0.981D-01 0.120D+01
 Coeff-En:   0.000D+00 0.000D+00 0.000D+00 0.000D+00 0.100D+01
 Coeff:      0.227D-02-0.216D-01-0.780D-01-0.974D-01 0.119D+01
 Gap=     0.449 Goal=   None    Shift=    0.000
 RMSDP=1.46D-04 MaxDP=2.02D-03 DE=-6.57D-04 OVMax= 4.35D-03

 Cycle   6  Pass 1  IDiag  1:
 E= -536.365231717111     Delta-E=       -0.000107632464 Rises=F Damp=F
 DIIS: error= 3.67D-04 at cycle   6 NSaved=   6.
 NSaved= 6 IEnMin= 6 EnMin= -536.365231717111     IErMin= 6 ErrMin= 3.67D-04
 ErrMax= 3.67D-04 EMaxC= 1.00D-01 BMatC= 6.84D-06 BMatP= 3.01D-05
 IDIUse=3 WtCom= 9.96D-01 WtEn= 3.67D-03
 Coeff-Com:  0.188D-02-0.717D-02-0.435D-01-0.140D+00 0.190D+00 0.999D+00
 Coeff-En:   0.000D+00 0.000D+00 0.000D+00 0.000D+00 0.000D+00 0.100D+01
 Coeff:      0.187D-02-0.714D-02-0.433D-01-0.140D+00 0.189D+00 0.999D+00
 Gap=     0.449 Goal=   None    Shift=    0.000
 RMSDP=7.28D-05 MaxDP=1.26D-03 DE=-1.08D-04 OVMax= 1.76D-03

 Cycle   7  Pass 1  IDiag  1:
 E= -536.365250044437     Delta-E=       -0.000018327326 Rises=F Damp=F
 DIIS: error= 9.86D-05 at cycle   7 NSaved=   7.
 NSaved= 7 IEnMin= 7 EnMin= -536.365250044437     IErMin= 7 ErrMin= 9.86D-05
 ErrMax= 9.86D-05 EMaxC= 1.00D-01 BMatC= 8.79D-07 BMatP= 6.84D-06
 IDIUse=1 WtCom= 1.00D+00 WtEn= 0.00D+00
 Coeff-Com: -0.146D-03 0.256D-02 0.903D-02-0.625D-02-0.138D+00 0.531D-01
 Coeff-Com:  0.108D+01
 Coeff:     -0.146D-03 0.256D-02 0.903D-02-0.625D-02-0.138D+00 0.531D-01
 Coeff:      0.108D+01
 Gap=     0.449 Goal=   None    Shift=    0.000
 RMSDP=2.62D-05 MaxDP=4.25D-04 DE=-1.83D-05 OVMax= 7.12D-04

 Cycle   8  Pass 1  IDiag  1:
 E= -536.365252253329     Delta-E=       -0.000002208891 Rises=F Damp=F
 DIIS: error= 4.33D-05 at cycle   8 NSaved=   8.
 NSaved= 8 IEnMin= 8 EnMin= -536.365252253329     IErMin= 8 ErrMin= 4.33D-05
 ErrMax= 4.33D-05 EMaxC= 1.00D-01 BMatC= 1.43D-07 BMatP= 8.79D-07
 IDIUse=1 WtCom= 1.00D+00 WtEn= 0.00D+00
 Coeff-Com: -0.339D-03 0.187D-02 0.105D-01 0.211D-01-0.575D-01-0.153D+00
 Coeff-Com:  0.278D+00 0.899D+00
 Coeff:     -0.339D-03 0.187D-02 0.105D-01 0.211D-01-0.575D-01-0.153D+00
 Coeff:      0.278D+00 0.899D+00
 Gap=     0.449 Goal=   None    Shift=    0.000
 RMSDP=8.28D-06 MaxDP=1.63D-04 DE=-2.21D-06 OVMax= 2.14D-04

 Cycle   9  Pass 1  IDiag  1:
 E= -536.365252519470     Delta-E=       -0.000000266141 Rises=F Damp=F
 DIIS: error= 1.14D-05 at cycle   9 NSaved=   9.
 NSaved= 9 IEnMin= 9 EnMin= -536.365252519470     IErMin= 9 ErrMin= 1.14D-05
 ErrMax= 1.14D-05 EMaxC= 1.00D-01 BMatC= 1.31D-08 BMatP= 1.43D-07
 IDIUse=1 WtCom= 1.00D+00 WtEn= 0.00D+00
 Coeff-Com:  0.596D-04-0.503D-03-0.221D-02-0.377D-02 0.220D-01 0.212D-01
 Coeff-Com: -0.145D+00-0.157D+00 0.127D+01
 Coeff:      0.596D-04-0.503D-03-0.221D-02-0.377D-02 0.220D-01 0.212D-01
 Coeff:     -0.145D+00-0.157D+00 0.127D+01
 Gap=     0.449 Goal=   None    Shift=    0.000
 RMSDP=3.01D-06 MaxDP=3.33D-05 DE=-2.66D-07 OVMax= 9.49D-05

 Cycle  10  Pass 1  IDiag  1:
 E= -536.365252559165     Delta-E=       -0.000000039695 Rises=F Damp=F
 DIIS: error= 6.67D-06 at cycle  10 NSaved=  10.
 NSaved=10 IEnMin=10 EnMin= -536.365252559165     IErMin=10 ErrMin= 6.67D-06
 ErrMax= 6.67D-06 EMaxC= 1.00D-01 BMatC= 2.62D-09 BMatP= 1.31D-08
 IDIUse=1 WtCom= 1.00D+00 WtEn= 0.00D+00
 Coeff-Com:  0.753D-04-0.476D-03-0.239D-02-0.509D-02 0.162D-01 0.327D-01
 Coeff-Com: -0.879D-01-0.201D+00 0.354D+00 0.894D+00
 Coeff:      0.753D-04-0.476D-03-0.239D-02-0.509D-02 0.162D-01 0.327D-01
 Coeff:     -0.879D-01-0.201D+00 0.354D+00 0.894D+00
 Gap=     0.449 Goal=   None    Shift=    0.000
 RMSDP=1.06D-06 MaxDP=1.50D-05 DE=-3.97D-08 OVMax= 3.94D-05

 Cycle  11  Pass 1  IDiag  1:
 E= -536.365252564816     Delta-E=       -0.000000005651 Rises=F Damp=F
 DIIS: error= 1.68D-06 at cycle  11 NSaved=  11.
 NSaved=11 IEnMin=11 EnMin= -536.365252564816     IErMin=11 ErrMin= 1.68D-06
 ErrMax= 1.68D-06 EMaxC= 1.00D-01 BMatC= 2.01D-10 BMatP= 2.62D-09
 IDIUse=1 WtCom= 1.00D+00 WtEn= 0.00D+00
 Coeff-Com: -0.251D-05 0.259D-04 0.138D-03 0.461D-04-0.152D-02-0.746D-03
 Coeff-Com:  0.107D-01 0.703D-02-0.117D+00 0.399D-01 0.106D+01
 Coeff:     -0.251D-05 0.259D-04 0.138D-03 0.461D-04-0.152D-02-0.746D-03
 Coeff:      0.107D-01 0.703D-02-0.117D+00 0.399D-01 0.106D+01
 Gap=     0.449 Goal=   None    Shift=    0.000
 RMSDP=3.73D-07 MaxDP=4.98D-06 DE=-5.65D-09 OVMax= 1.20D-05

 Cycle  12  Pass 1  IDiag  1:
 E= -536.365252565294     Delta-E=       -0.000000000478 Rises=F Damp=F
 DIIS: error= 5.38D-07 at cycle  12 NSaved=  12.
 NSaved=12 IEnMin=12 EnMin= -536.365252565294     IErMin=12 ErrMin= 5.38D-07
 ErrMax= 5.38D-07 EMaxC= 1.00D-01 BMatC= 1.76D-11 BMatP= 2.01D-10
 IDIUse=1 WtCom= 1.00D+00 WtEn= 0.00D+00
 Coeff-Com: -0.821D-05 0.542D-04 0.271D-03 0.544D-03-0.190D-02-0.347D-02
 Coeff-Com:  0.108D-01 0.230D-01-0.503D-01-0.921D-01 0.128D+00 0.985D+00
 Coeff:     -0.821D-05 0.542D-04 0.271D-03 0.544D-03-0.190D-02-0.347D-02
 Coeff:      0.108D-01 0.230D-01-0.503D-01-0.921D-01 0.128D+00 0.985D+00
 Gap=     0.449 Goal=   None    Shift=    0.000
 RMSDP=1.03D-07 MaxDP=1.34D-06 DE=-4.78D-10 OVMax= 3.81D-06

 Cycle  13  Pass 1  IDiag  1:
 E= -536.365252565341     Delta-E=       -0.000000000047 Rises=F Damp=F
 DIIS: error= 1.54D-07 at cycle  13 NSaved=  13.
 NSaved=13 IEnMin=13 EnMin= -536.365252565341     IErMin=13 ErrMin= 1.54D-07
 ErrMax= 1.54D-07 EMaxC= 1.00D-01 BMatC= 2.95D-12 BMatP= 1.76D-11
 IDIUse=1 WtCom= 1.00D+00 WtEn= 0.00D+00
 Coeff-Com:  0.145D-05-0.103D-04-0.594D-04-0.692D-04 0.460D-03 0.610D-03
 Coeff-Com: -0.322D-02-0.365D-02 0.223D-01 0.340D-02-0.167D+00-0.846D-01
 Coeff-Com:  0.123D+01
 Coeff:      0.145D-05-0.103D-04-0.594D-04-0.692D-04 0.460D-03 0.610D-03
 Coeff:     -0.322D-02-0.365D-02 0.223D-01 0.340D-02-0.167D+00-0.846D-01
 Coeff:      0.123D+01
 Gap=     0.449 Goal=   None    Shift=    0.000
 RMSDP=4.79D-08 MaxDP=6.99D-07 DE=-4.71D-11 OVMax= 1.94D-06

 Cycle  14  Pass 1  IDiag  1:
 E= -536.365252565351     Delta-E=       -0.000000000010 Rises=F Damp=F
 DIIS: error= 6.79D-08 at cycle  14 NSaved=  14.
 NSaved=14 IEnMin=14 EnMin= -536.365252565351     IErMin=14 ErrMin= 6.79D-08
 ErrMax= 6.79D-08 EMaxC= 1.00D-01 BMatC= 2.21D-13 BMatP= 2.95D-12
 IDIUse=1 WtCom= 1.00D+00 WtEn= 0.00D+00
 Coeff-Com:  0.684D-06-0.466D-05-0.246D-04-0.463D-04 0.174D-03 0.312D-03
 Coeff-Com: -0.110D-02-0.164D-02 0.528D-02 0.690D-02-0.212D-01-0.606D-01
 Coeff-Com:  0.428D-01 0.103D+01
 Coeff:      0.684D-06-0.466D-05-0.246D-04-0.463D-04 0.174D-03 0.312D-03
 Coeff:     -0.110D-02-0.164D-02 0.528D-02 0.690D-02-0.212D-01-0.606D-01
 Coeff:      0.428D-01 0.103D+01
 Gap=     0.449 Goal=   None    Shift=    0.000
 RMSDP=1.02D-08 MaxDP=1.44D-07 DE=-1.02D-11 OVMax= 4.16D-07

 Cycle  15  Pass 1  IDiag  1:
 E= -536.365252565355     Delta-E=       -0.000000000004 Rises=F Damp=F
 DIIS: error= 1.87D-08 at cycle  15 NSaved=  15.
 NSaved=15 IEnMin=15 EnMin= -536.365252565355     IErMin=15 ErrMin= 1.87D-08
 ErrMax= 1.87D-08 EMaxC= 1.00D-01 BMatC= 4.90D-14 BMatP= 2.21D-13
 IDIUse=1 WtCom= 1.00D+00 WtEn= 0.00D+00
 Coeff-Com: -0.191D-06 0.137D-05 0.781D-05 0.800D-05-0.603D-04-0.739D-04
 Coeff-Com:  0.407D-03 0.600D-03-0.342D-02-0.607D-03 0.262D-01 0.172D-01
 Coeff-Com: -0.231D+00 0.776D-01 0.111D+01
 Coeff:     -0.191D-06 0.137D-05 0.781D-05 0.800D-05-0.603D-04-0.739D-04
 Coeff:      0.407D-03 0.600D-03-0.342D-02-0.607D-03 0.262D-01 0.172D-01
 Coeff:     -0.231D+00 0.776D-01 0.111D+01
 Gap=     0.449 Goal=   None    Shift=    0.000
 RMSDP=6.10D-09 MaxDP=9.01D-08 DE=-3.87D-12 OVMax= 2.33D-07

 SCF Done:  E(RHF) =  -536.365252565     A.U. after   15 cycles
             Convg  =    0.6101D-08             -V/T =  2.0020
 KE= 5.352909373640D+02 PE=-2.452042123114D+03 EE= 7.823235743735D+02
 Leave Link  502 at Thu Aug 16 14:57:32 2012, MaxMem=  104857600 cpu:      10.3
 (Enter /opt/Gaussian/g09/l801.exe)
 Range of M.O.s used for correlation:     1   109
 NBasis=   109 NAE=    39 NBE=    39 NFC=     0 NFV=     0
 NROrb=    109 NOA=    39 NOB=    39 NVA=    70 NVB=    70
 Leave Link  801 at Thu Aug 16 14:57:33 2012, MaxMem=  104857600 cpu:       0.2
 (Enter /opt/Gaussian/g09/l1002.exe)
 Minotr:  Closed shell wavefunction.
          Direct CPHF calculation.
          Differentiating once with respect to electric field.
                with respect to dipole field.
          Electric field/nuclear overlap derivatives assumed to be zero.
          Requested convergence is 1.0D-08 RMS, and 1.0D-07 maximum.
          Secondary convergence is 1.0D-12 RMS, and 1.0D-12 maximum.
          NewPWx=F KeepS1=T KeepF1=T KeepIn=T MapXYZ=F SortEE=F KeepMc=T.
          MDV=     104857468 using IRadAn=       2.
          Keep R1 ints in memory in canonical form, NReq=18773918.
 Symmetry not used in FoFDir.
 MinBra= 0 MaxBra= 1 Meth= 1.
 IRaf=       0 NMat=   1 IRICut=       1 DoRegI=T DoRafI=F ISym2E= 0 JSym2E=0.
          Solving linear equations simultaneously, MaxMat=       0.
          There are     3 degrees of freedom in the 1st order CPHF.  IDoFFX=0.
      3 vectors produced by pass  0 Test12= 9.10D-14 3.33D-08 XBig12= 3.07D+01 2.70D+00.
 AX will form     3 AO Fock derivatives at one time.
      3 vectors produced by pass  1 Test12= 9.10D-14 3.33D-08 XBig12= 3.12D+00 4.27D-01.
      3 vectors produced by pass  2 Test12= 9.10D-14 3.33D-08 XBig12= 3.13D-01 1.36D-01.
      3 vectors produced by pass  3 Test12= 9.10D-14 3.33D-08 XBig12= 3.36D-02 5.05D-02.
      3 vectors produced by pass  4 Test12= 9.10D-14 3.33D-08 XBig12= 5.15D-03 2.42D-02.
      3 vectors produced by pass  5 Test12= 9.10D-14 3.33D-08 XBig12= 2.45D-04 4.05D-03.
      3 vectors produced by pass  6 Test12= 9.10D-14 3.33D-08 XBig12= 3.55D-05 1.75D-03.
      3 vectors produced by pass  7 Test12= 9.10D-14 3.33D-08 XBig12= 2.54D-06 4.67D-04.
      3 vectors produced by pass  8 Test12= 9.10D-14 3.33D-08 XBig12= 1.81D-07 9.05D-05.
      3 vectors produced by pass  9 Test12= 9.10D-14 3.33D-08 XBig12= 9.51D-09 2.03D-05.
      3 vectors produced by pass 10 Test12= 9.10D-14 3.33D-08 XBig12= 4.81D-10 4.07D-06.
      2 vectors produced by pass 11 Test12= 9.10D-14 3.33D-08 XBig12= 5.28D-11 1.46D-06.
      2 vectors produced by pass 12 Test12= 9.10D-14 3.33D-08 XBig12= 9.76D-13 2.32D-07.
 Inverted reduced A of dimension    37 with in-core refinement.
 End of Minotr Frequency-dependent properties file   721 does not exist.
 End of Minotr Frequency-dependent properties file   722 does not exist.
 Leave Link 1002 at Thu Aug 16 14:57:35 2012, MaxMem=  104857600 cpu:      10.9
 (Enter /opt/Gaussian/g09/l1101.exe)
 Using compressed storage, NAtomX=    16.
 Will process  17 centers per pass.
 Leave Link 1101 at Thu Aug 16 14:57:36 2012, MaxMem=  104857600 cpu:       1.2
 (Enter /opt/Gaussian/g09/l1102.exe)
 Symmetrizing basis deriv contribution to polar:
 IMax=3 JMax=2 DiffMx= 0.00D+00
 Leave Link 1102 at Thu Aug 16 14:57:36 2012, MaxMem=  104857600 cpu:       0.3
 (Enter /opt/Gaussian/g09/l1110.exe)
 Forming Gx(P) for the SCF density, NAtomX=    16.
 Integral derivatives from FoFDir/FoFCou, PRISM(SPDF).
 Do as many integral derivatives as possible in FoFDir.
 G2DrvN: MDV=     104857368.
 G2DrvN: will do    17 centers at a time, making    1 passes doing MaxLOS=1.
 Calling FoFCou, ICntrl=  3107 FMM=F I1Cent=   0 AccDes= 0.00D+00.
 FoFCou: FMM=F IPFlag=           0 FMFlag=      100000 FMFlg1=           0
         NFxFlg=           0 DoJE=F BraDBF=F KetDBF=F FulRan=T
         Omega=  0.000000  0.000000  1.000000  0.000000  0.000000 ICntrl=    3107 IOpCl=  0
         NMat0=    1 NMatS0=    1 NMatT0=    0 NMatD0=    4 NMtDS0=    3 NMtDT0=    0
         I1Cent=           0 NGrid=           0.
 Symmetry not used in FoFCou.
 FoFDir/FoFCou used for L=0 through L=1.
 End of G2Drv Frequency-dependent properties file   721 does not exist.
 End of G2Drv Frequency-dependent properties file   722 does not exist.
 Leave Link 1110 at Thu Aug 16 14:57:39 2012, MaxMem=  104857600 cpu:      11.3
 (Enter /opt/Gaussian/g09/l1002.exe)
 Minotr:  Closed shell wavefunction.
          IDoAtm=1111111111111111
          Direct CPHF calculation.
          Differentiating once with respect to electric field.
                with respect to dipole field.
          Differentiating once with respect to nuclear coordinates.
          Requested convergence is 1.0D-08 RMS, and 1.0D-07 maximum.
          Secondary convergence is 1.0D-12 RMS, and 1.0D-12 maximum.
          NewPWx=T KeepS1=F KeepF1=F KeepIn=T MapXYZ=F SortEE=F KeepMc=T.
          MDV=     104857436 using IRadAn=       2.
          Keep R1 ints in memory in canonical form, NReq=18774254.
 Symmetry not used in FoFDir.
 MinBra= 0 MaxBra= 1 Meth= 1.
 IRaf=       0 NMat=   1 IRICut=       1 DoRegI=T DoRafI=F ISym2E= 0 JSym2E=0.
          Solving linear equations simultaneously, MaxMat=       0.
          There are    51 degrees of freedom in the 1st order CPHF.  IDoFFX=5.
 Will reuse    3 saved solutions.
     45 vectors produced by pass  0 Test12= 5.35D-15 1.96D-09 XBig12= 1.58D-01 9.74D-02.
 AX will form    45 AO Fock derivatives at one time.
     45 vectors produced by pass  1 Test12= 5.35D-15 1.96D-09 XBig12= 4.32D-02 5.63D-02.
     45 vectors produced by pass  2 Test12= 5.35D-15 1.96D-09 XBig12= 1.02D-03 6.20D-03.
     45 vectors produced by pass  3 Test12= 5.35D-15 1.96D-09 XBig12= 1.59D-05 5.67D-04.
     45 vectors produced by pass  4 Test12= 5.35D-15 1.96D-09 XBig12= 1.36D-07 4.76D-05.
     45 vectors produced by pass  5 Test12= 5.35D-15 1.96D-09 XBig12= 8.20D-10 3.95D-06.
     43 vectors produced by pass  6 Test12= 5.35D-15 1.96D-09 XBig12= 3.42D-12 2.63D-07.
     20 vectors produced by pass  7 Test12= 5.35D-15 1.96D-09 XBig12= 1.57D-14 1.51D-08.
 Inverted reduced A of dimension   333 with in-core refinement.
 FullF1:  Do perturbations    1 to     3.
 Isotropic polarizability for W=    0.000000       65.79 Bohr**3.
 FullF1:  Do perturbations    1 to     6.
 End of Minotr Frequency-dependent properties file   721 does not exist.
 End of Minotr Frequency-dependent properties file   722 does not exist.
 Leave Link 1002 at Thu Aug 16 14:57:46 2012, MaxMem=  104857600 cpu:      27.5
 (Enter /opt/Gaussian/g09/l601.exe)
 Copying SCF densities to generalized density rwf, IOpCl= 0 IROHF=0.

 **********************************************************************

            Population analysis using the SCF density.

 **********************************************************************

 Orbital symmetries:
       Occupied  (A) (A) (A) (A) (A) (A) (A) (A) (A) (A) (A) (A)
                 (A) (A) (A) (A) (A) (A) (A) (A) (A) (A) (A) (A)
                 (A) (A) (A) (A) (A) (A) (A) (A) (A) (A) (A) (A)
                 (A) (A) (A)
       Virtual   (A) (A) (A) (A) (A) (A) (A) (A) (A) (A) (A) (A)
                 (A) (A) (A) (A) (A) (A) (A) (A) (A) (A) (A) (A)
                 (A) (A) (A) (A) (A) (A) (A) (A) (A) (A) (A) (A)
                 (A) (A) (A) (A) (A) (A) (A) (A) (A) (A) (A) (A)
                 (A) (A) (A) (A) (A) (A) (A) (A) (A) (A) (A) (A)
                 (A) (A) (A) (A) (A) (A) (A) (A) (A) (A)
 The electronic state is 1-A.
 Alpha  occ. eigenvalues --  -20.41982 -15.55154 -15.55146 -15.52965 -15.48625
 Alpha  occ. eigenvalues --  -15.48293 -11.34886 -11.31305 -11.27221 -11.24875
 Alpha  occ. eigenvalues --  -11.19056  -1.40801  -1.37464  -1.34896  -1.22974
 Alpha  occ. eigenvalues --   -1.22301  -1.18100  -1.04118  -0.90902  -0.89128
 Alpha  occ. eigenvalues --   -0.83700  -0.81357  -0.74974  -0.73967  -0.70785
 Alpha  occ. eigenvalues --   -0.67802  -0.66499  -0.63288  -0.60775  -0.60173
 Alpha  occ. eigenvalues --   -0.59746  -0.55053  -0.47035  -0.44532  -0.42542
 Alpha  occ. eigenvalues --   -0.42408  -0.40784  -0.40020  -0.29565
 Alpha virt. eigenvalues --    0.15376   0.17143   0.22883   0.23391   0.26897
 Alpha virt. eigenvalues --    0.28190   0.30672   0.32283   0.38700   0.38707
 Alpha virt. eigenvalues --    0.42964   0.45313   0.48789   0.53313   0.55035
 Alpha virt. eigenvalues --    0.57585   0.62386   0.64282   0.69521   0.77243
 Alpha virt. eigenvalues --    0.78816   0.90158   0.96130   0.97029   0.97261
 Alpha virt. eigenvalues --    1.00467   1.01244   1.05347   1.06285   1.06621
 Alpha virt. eigenvalues --    1.07984   1.11302   1.14941   1.15860   1.17641
 Alpha virt. eigenvalues --    1.19308   1.33274   1.37907   1.38624   1.41158
 Alpha virt. eigenvalues --    1.43289   1.43843   1.44235   1.45024   1.47970
 Alpha virt. eigenvalues --    1.53087   1.54015   1.55858   1.61619   1.65677
 Alpha virt. eigenvalues --    1.67226   1.67939   1.77481   1.84204   1.89648
 Alpha virt. eigenvalues --    1.94166   1.95797   1.96726   1.99490   2.05274
 Alpha virt. eigenvalues --    2.08345   2.15167   2.36240   2.48272   2.87464
 Alpha virt. eigenvalues --    3.08333   3.18641   3.23203   3.55431   3.96999
          Condensed to atoms (all electrons):
              1          2          3          4          5          6
     1  C    4.438044   0.038834  -0.068071  -0.010843  -0.043364   0.116232
     2  C    0.038834   6.059546   0.172070  -0.060828   0.006762  -0.164434
     3  C   -0.068071   0.172070   4.926161   0.338804  -0.145004   0.001486
     4  N   -0.010843  -0.060828   0.338804   7.210185   0.536466  -0.081779
     5  C   -0.043364   0.006762  -0.145004   0.536466   4.043966   0.203210
     6  N    0.116232  -0.164434   0.001486  -0.081779   0.203210   7.807931
     7  N   -0.032547   0.309213  -0.071465   0.002813   0.000416   0.000864
     8  C    0.001231  -0.201022  -0.130413   0.001739  -0.000009  -0.000172
     9  N    0.003654  -0.072118   0.183083  -0.032939   0.000374   0.000121
    10  N    0.000413  -0.000075   0.000209  -0.062958   0.271126  -0.073934
    11  O    0.643919  -0.107822   0.002934  -0.000002   0.000675  -0.081943
    12  H   -0.000016   0.003882   0.001516  -0.000010   0.000003   0.000000
    13  H   -0.000027   0.005043  -0.019442   0.001324   0.000002   0.000008
    14  H   -0.019683   0.006897  -0.000583   0.001838  -0.023040   0.320547
    15  H   -0.000053   0.000006  -0.000136   0.001953  -0.029081  -0.001011
    16  H   -0.000023   0.000040   0.000093   0.002590  -0.025489   0.002962
              7          8          9         10         11         12
     1  C   -0.032547   0.001231   0.003654   0.000413   0.643919  -0.000016
     2  C    0.309213  -0.201022  -0.072118  -0.000075  -0.107822   0.003882
     3  C   -0.071465  -0.130413   0.183083   0.000209   0.002934   0.001516
     4  N    0.002813   0.001739  -0.032939  -0.062958  -0.000002  -0.000010
     5  C    0.000416  -0.000009   0.000374   0.271126   0.000675   0.000003
     6  N    0.000864  -0.000172   0.000121  -0.073934  -0.081943   0.000000
     7  N    7.032762   0.523609  -0.113800   0.000000  -0.001209  -0.026658
     8  C    0.523609   4.826395   0.231776   0.000000  -0.000046   0.388459
     9  N   -0.113800   0.231776   7.485566  -0.000008  -0.000003  -0.038849
    10  N    0.000000   0.000000  -0.000008   7.164610  -0.000003   0.000000
    11  O   -0.001209  -0.000046  -0.000003  -0.000003   8.167166   0.000000
    12  H   -0.026658   0.388459  -0.038849   0.000000   0.000000   0.398259
    13  H    0.001531  -0.011063   0.333605  -0.000002   0.000000   0.000171
    14  H   -0.000008   0.000003   0.000002  -0.001467   0.003239   0.000000
    15  H    0.000000   0.000000   0.000000   0.340730  -0.000001   0.000000
    16  H    0.000000   0.000000  -0.000004   0.330424   0.000000   0.000000
             13         14         15         16
     1  C   -0.000027  -0.019683  -0.000053  -0.000023
     2  C    0.005043   0.006897   0.000006   0.000040
     3  C   -0.019442  -0.000583  -0.000136   0.000093
     4  N    0.001324   0.001838   0.001953   0.002590
     5  C    0.000002  -0.023040  -0.029081  -0.025489
     6  N    0.000008   0.320547  -0.001011   0.002962
     7  N    0.001531  -0.000008   0.000000   0.000000
     8  C   -0.011063   0.000003   0.000000   0.000000
     9  N    0.333605   0.000002   0.000000  -0.000004
    10  N   -0.000002  -0.001467   0.340730   0.330424
    11  O    0.000000   0.003239  -0.000001   0.000000
    12  H    0.000171   0.000000   0.000000   0.000000
    13  H    0.303786   0.000000   0.000000   0.000001
    14  H    0.000000   0.327189   0.002372   0.000016
    15  H    0.000000   0.002372   0.341500  -0.015589
    16  H    0.000001   0.000016  -0.015589   0.322455
 Mulliken atomic charges:
              1
     1  C    0.932300
     2  C    0.004008
     3  C    0.808759
     4  N   -0.848351
     5  C    1.202988
     6  N   -1.050088
     7  N   -0.625521
     8  C    0.369513
     9  N   -0.980459
    10  N   -0.969066
    11  O   -0.626902
    12  H    0.273245
    13  H    0.385063
    14  H    0.382678
    15  H    0.359310
    16  H    0.382524
 Sum of Mulliken atomic charges =   0.00000
 Mulliken charges with hydrogens summed into heavy atoms:
              1
     1  C    0.932300
     2  C    0.004008
     3  C    0.808759
     4  N   -0.848351
     5  C    1.202988
     6  N   -0.667410
     7  N   -0.625521
     8  C    0.642758
     9  N   -0.595397
    10  N   -0.227233
    11  O   -0.626902
 Sum of Mulliken charges with hydrogens summed into heavy atoms =   0.00000
 APT atomic charges:
              1
     1  C    1.313430
     2  C   -0.394449
     3  C    0.865771
     4  N   -1.085117
     5  C    1.501813
     6  N   -0.859518
     7  N   -0.369155
     8  C    0.228022
     9  N   -0.557941
    10  N   -1.045137
    11  O   -0.887167
    12  H    0.080905
    13  H    0.329846
    14  H    0.272325
    15  H    0.296416
    16  H    0.309954
 Sum of APT charges=   0.00000
 APT Atomic charges with hydrogens summed into heavy atoms:
              1
     1  C    1.313430
     2  C   -0.394449
     3  C    0.865771
     4  N   -1.085117
     5  C    1.501813
     6  N   -0.587193
     7  N   -0.369155
     8  C    0.308927
     9  N   -0.228094
    10  N   -0.438767
    11  O   -0.887167
    12  H    0.000000
    13  H    0.000000
    14  H    0.000000
    15  H    0.000000
    16  H    0.000000
 Sum of APT charges=   0.00000
 Electronic spatial extent (au):  <R**2>=           1503.1943
 Charge=              0.0000 electrons
 Dipole moment (field-independent basis, Debye):
    X=             -4.1846    Y=             -5.8339    Z=              0.0025  Tot=              7.1795
 Quadrupole moment (field-independent basis, Debye-Ang):
   XX=            -39.8554   YY=            -71.0074   ZZ=            -64.8260
   XY=            -10.0302   XZ=             -0.0120   YZ=              0.0012
 Traceless Quadrupole moment (field-independent basis, Debye-Ang):
   XX=             18.7075   YY=            -12.4445   ZZ=             -6.2631
   XY=            -10.0302   XZ=             -0.0120   YZ=              0.0012
 Octapole moment (field-independent basis, Debye-Ang**2):
  XXX=            -58.7359  YYY=            -55.2841  ZZZ=              0.0000  XYY=             -4.5491
  XXY=            -29.7658  XXZ=              0.0473  XZZ=             -3.1056  YZZ=              3.7599
  YYZ=             -0.0040  XYZ=              0.0060
 Hexadecapole moment (field-independent basis, Debye-Ang**3):
 XXXX=           -835.5231 YYYY=           -711.9908 ZZZZ=            -56.6158 XXXY=            -49.5240
 XXXZ=             -0.1855 YYYX=            -24.6882 YYYZ=              0.0205 ZZZX=             -0.0091
 ZZZY=             -0.0025 XXYY=           -243.7490 XXZZ=           -224.9282 YYZZ=           -119.1805
 XXYZ=             -0.0153 YYXZ=              0.0047 ZZXY=             -2.2526
 N-N= 5.980623588115D+02 E-N=-2.452042123048D+03  KE= 5.352909373640D+02
  Exact polarizability:  96.336  -5.242  79.576   0.000   0.003  21.457
 Approx polarizability:  80.214  -4.257  85.497   0.000   0.003  20.799
 No NMR shielding tensors so no spin-rotation constants.
 Leave Link  601 at Thu Aug 16 14:57:46 2012, MaxMem=  104857600 cpu:       0.8
 (Enter /opt/Gaussian/g09/l701.exe)
 Compute integral second derivatives.
 ... and contract with generalized density number  0.
 Leave Link  701 at Thu Aug 16 14:57:46 2012, MaxMem=  104857600 cpu:       1.0
 (Enter /opt/Gaussian/g09/l702.exe)
 L702 exits ... SP integral derivatives will be done elsewhere.
 Leave Link  702 at Thu Aug 16 14:57:46 2012, MaxMem=  104857600 cpu:       0.3
 (Enter /opt/Gaussian/g09/l703.exe)
 Compute integral second derivatives, UseDBF=F ICtDFT=           0.
 Integral derivatives from FoFDir, PRISM(SPDF).
 Calling FoFJK, ICntrl=    100127 FMM=F ISym2X=0 I1Cent= 0 IOpClX= 0 NMat=1 NMatS=1 NMatT=0.
 FoFCou: FMM=F IPFlag=           0 FMFlag=      100000 FMFlg1=         800
         NFxFlg=           0 DoJE=F BraDBF=F KetDBF=F FulRan=T
         Omega=  0.000000  0.000000  1.000000  0.000000  0.000000 ICntrl=  100127 IOpCl=  0
         NMat0=    1 NMatS0=    1 NMatT0=    0 NMatD0=    1 NMtDS0=    0 NMtDT0=    0
         I1Cent=           0 NGrid=           0.
 Symmetry not used in FoFCou.
 Leave Link  703 at Thu Aug 16 14:57:51 2012, MaxMem=  104857600 cpu:      20.3
 (Enter /opt/Gaussian/g09/l716.exe)
 Dipole        =-1.64635405D+00-2.29524731D+00 9.81136816D-04
 Polarizability= 9.63359976D+01-5.24162534D+00 7.95761783D+01
                -4.84335868D-04 2.88156396D-03 2.14570266D+01
 HyperPolar    = 1.11351526D+02 9.24779430D+01-5.02169054D+01
                -5.54599248D+01 6.56285161D-02-6.07016612D-03
                -2.23691162D-02-4.74087921D+00-1.31246829D+01
                 7.40669674D-03
 Full mass-weighted force constant matrix:
 Low frequencies ---   -4.5048   -2.6578   -0.0010   -0.0009   -0.0005    3.1707
 Low frequencies ---  161.8501  213.3935  244.6059
 Harmonic frequencies (cm**-1), IR intensities (KM/Mole), Raman scattering
 activities (A**4/AMU), depolarization ratios for plane and unpolarized
 incident light, reduced masses (AMU), force constants (mDyne/A),
 and normal coordinates:
                           1         2         3         4         5
                           A         A         A         A         A
       Frequencies ---   161.8501  213.3935  244.6059  335.4764  364.4240
    Reduced masses ---     6.0457    6.4759    4.3967    5.7633    4.3392
   Force constants ---     0.0933    0.1737    0.1550    0.3822    0.3395
    IR Intensities ---     5.5975    0.5947   14.0389    2.8833    4.3488
  Raman Activities ---     0.4122    0.2529    0.1941    1.7794    2.0671
    Depol. (Plane) ---     0.7500    0.7500    0.7500    0.6347    0.7288
    Depol. (Unpol) ---     0.8571    0.8571    0.8571    0.7766    0.8432
 Coord Atom Element:
   1     1     6          0.00001   0.00001  -0.00002   0.01132  -0.02099
   2     1     6          0.00000  -0.00001  -0.00003   0.12479  -0.03725
   3     1     6          0.05890   0.08774   0.04412  -0.00003   0.00007
   1     2     6          0.00001   0.00001  -0.00004   0.11424   0.05688
   2     2     6          0.00001   0.00000  -0.00004   0.13199  -0.00062
   3     2     6         -0.00694   0.21325   0.26447   0.00012   0.00002
   1     3     6          0.00000   0.00000   0.00001  -0.01271   0.05134
   2     3     6         -0.00002   0.00001  -0.00003   0.13866  -0.02651
   3     3     6          0.20741   0.09198   0.10317   0.00004   0.00003
   1     4     7          0.00000  -0.00001  -0.00001   0.05315   0.03146
   2     4     7         -0.00001   0.00002  -0.00004   0.11556  -0.07778
   3     4     7          0.29556  -0.00386   0.16191   0.00007   0.00000
   1     5     6         -0.00001  -0.00001   0.00001   0.01523   0.04902
   2     5     6          0.00001   0.00002  -0.00003   0.04086  -0.04998
   3     5     6          0.01835   0.09166  -0.01918   0.00002  -0.00005
   1     6     7          0.00000  -0.00002   0.00001   0.00504   0.08847
   2     6     7          0.00000   0.00002  -0.00002   0.02375  -0.09390
   3     6     7         -0.01804   0.37204  -0.27392  -0.00015   0.00006
   1     7     7         -0.00001   0.00000  -0.00007   0.20846   0.07082
   2     7     7          0.00000   0.00002   0.00005  -0.14661  -0.01814
   3     7     7         -0.29018   0.10056   0.16916   0.00015  -0.00007
   1     8     6          0.00000   0.00000  -0.00001  -0.00186   0.06938
   2     8     6          0.00000   0.00001   0.00008  -0.24791  -0.02083
   3     8     6         -0.20589  -0.09827  -0.14712  -0.00006  -0.00002
   1     9     7          0.00000   0.00000   0.00004  -0.15567   0.06805
   2     9     7         -0.00001   0.00002   0.00003  -0.05628  -0.01677
   3     9     7          0.13975  -0.12053  -0.19932  -0.00016   0.00009
   1    10     7          0.00004   0.00002  -0.00006   0.10028  -0.07033
   2    10     7         -0.00002   0.00003   0.00006  -0.17625   0.29436
   3    10     7         -0.29894  -0.21437   0.04205   0.00012  -0.00015
   1    11     8          0.00000   0.00002   0.00010  -0.27274  -0.31474
   2    11     8          0.00002  -0.00010  -0.00005   0.13448  -0.02760
   3    11     8          0.16498  -0.35378  -0.02924  -0.00002  -0.00002
   1    12     1          0.00001   0.00001   0.00002  -0.04366   0.06981
   2    12     1          0.00001   0.00001   0.00012  -0.42651  -0.02204
   3    12     1         -0.37025  -0.22842  -0.34257  -0.00014  -0.00004
   1    13     1         -0.00002  -0.00002   0.00008  -0.38159   0.07368
   2    13     1         -0.00003   0.00005   0.00008  -0.08291  -0.01688
   3    13     1          0.24077  -0.29849  -0.41391  -0.00026   0.00013
   1    14     1          0.00005  -0.00001   0.00009   0.01215   0.09834
   2    14     1          0.00001   0.00005  -0.00014   0.03460  -0.08393
   3    14     1         -0.09631   0.39747  -0.61840   0.00032  -0.00073
   1    15     1         -0.00051  -0.00034   0.00020  -0.03707   0.15703
   2    15     1          0.00004  -0.00038   0.00023  -0.35855   0.59655
   3    15     1         -0.54956  -0.23386   0.10415  -0.00182   0.00227
   1    16     1          0.00014   0.00007  -0.00011   0.34037  -0.47115
   2    16     1         -0.00003   0.00011   0.00001  -0.21195   0.35466
   3    16     1         -0.31048  -0.48185   0.20320   0.00063  -0.00089
                           6         7         8         9        10
                           A         A         A         A         A
       Frequencies ---   389.1270  432.4463  528.9413  575.4093  612.8183
    Reduced masses ---     1.0790    7.2589    8.8029    6.0512    1.2084
   Force constants ---     0.0963    0.7998    1.4511    1.1805    0.2674
    IR Intensities ---    75.1647    4.6414    1.1195    1.2037  253.1701
  Raman Activities ---     1.2522    1.2223    4.0557    2.5798    1.8434
    Depol. (Plane) ---     0.7500    0.7500    0.5504    0.7437    0.7500
    Depol. (Unpol) ---     0.8571    0.8571    0.7100    0.8530    0.8571
 Coord Atom Element:
   1     1     6         -0.00003  -0.00003  -0.04457  -0.11531  -0.00011
   2     1     6          0.00009  -0.00003  -0.18877  -0.05202  -0.00005
   3     1     6          0.01226  -0.10108  -0.00002  -0.00001   0.00410
   1     2     6          0.00004   0.00002   0.18939  -0.08526  -0.00004
   2     2     6          0.00006  -0.00003   0.00841  -0.16676  -0.00008
   3     2     6         -0.00771  -0.30007   0.00003  -0.00003   0.01520
   1     3     6          0.00001   0.00004   0.09215   0.08762   0.00005
   2     3     6          0.00010  -0.00003   0.08872  -0.19122  -0.00008
   3     3     6         -0.00492  -0.22967   0.00004   0.00002  -0.00806
   1     4     7         -0.00001  -0.00004  -0.08425  -0.01885   0.00002
   2     4     7          0.00012  -0.00003   0.26635   0.15451   0.00013
   3     4     7          0.01642   0.40341  -0.00002   0.00007  -0.02811
   1     5     6          0.00001  -0.00002  -0.27613   0.05915  -0.00001
   2     5     6          0.00001  -0.00001   0.05431   0.26381   0.00013
   3     5     6         -0.00178   0.19886  -0.00009  -0.00014   0.05975
   1     6     7         -0.00006   0.00002  -0.21770  -0.11435  -0.00013
   2     6     7          0.00004  -0.00001   0.02782   0.21768   0.00014
   3     6     7          0.01284   0.02854  -0.00007   0.00007  -0.04276
   1     7     7          0.00006   0.00002   0.29609  -0.12571  -0.00004
   2     7     7         -0.00005   0.00001   0.04266  -0.08320  -0.00005
   3     7     7         -0.01733   0.15392  -0.00001   0.00002  -0.00497
   1     8     6         -0.00002   0.00005   0.22797   0.05682   0.00005
   2     8     6         -0.00010   0.00001   0.00022   0.00607  -0.00001
   3     8     6          0.00418   0.19516  -0.00002   0.00001  -0.00859
   1     9     7         -0.00007   0.00009   0.17105   0.17779   0.00010
   2     9     7         -0.00001   0.00001   0.03386  -0.17086  -0.00010
   3     9     7          0.01704  -0.28671   0.00003  -0.00001   0.01385
   1    10     7         -0.00015  -0.00006  -0.32178   0.19862   0.00022
   2    10     7         -0.00015   0.00010  -0.08390   0.04799  -0.00002
   3    10     7         -0.06499  -0.12286   0.00004  -0.00027   0.09618
   1    11     8          0.00012  -0.00004   0.01261  -0.16251  -0.00005
   2    11     8          0.00007   0.00000  -0.22028  -0.04608  -0.00004
   3    11     8         -0.00281   0.03472   0.00004   0.00000   0.00146
   1    12     1         -0.00004   0.00004   0.22041   0.10088   0.00007
   2    12     1         -0.00017   0.00005  -0.05944   0.18829   0.00008
   3    12     1          0.01194   0.54512  -0.00007   0.00001  -0.02597
   1    13     1         -0.00016   0.00017   0.19617   0.33624   0.00016
   2    13     1         -0.00002   0.00000   0.03631  -0.15391  -0.00010
   3    13     1          0.03342  -0.18675  -0.00011  -0.00032   0.06887
   1    14     1         -0.00011   0.00000  -0.06976  -0.08470  -0.00009
   2    14     1         -0.00018  -0.00006   0.21691   0.25687   0.00012
   3    14     1         -0.22132   0.00301   0.00051   0.00028  -0.14133
   1    15     1          0.00081  -0.00047  -0.37252   0.01570  -0.00059
   2    15     1         -0.00190  -0.00012  -0.14398  -0.19938  -0.00032
   3    15     1          0.94061  -0.22390  -0.00074   0.00094  -0.18019
   1    16     1          0.00048  -0.00008  -0.24675   0.54247  -0.00034
   2    16     1         -0.00021   0.00017  -0.09654  -0.00039   0.00047
   3    16     1         -0.24391  -0.31849   0.00088   0.00264  -0.96234
                          11        12        13        14        15
                           A         A         A         A         A
       Frequencies ---   666.7067  715.9404  719.8094  730.6511  789.4501
    Reduced masses ---     8.3024    4.6052    2.0887    1.3037    1.8462
   Force constants ---     2.1743    1.3908    0.6376    0.4101    0.6779
    IR Intensities ---    11.3175   22.8403   10.6720   40.7951  186.4077
  Raman Activities ---    17.5685    0.2394    7.4829    2.0695    0.6976
    Depol. (Plane) ---     0.1325    0.2674    0.7500    0.7500    0.7500
    Depol. (Unpol) ---     0.2340    0.4220    0.8571    0.8571    0.8571
 Coord Atom Element:
   1     1     6          0.05512   0.28508   0.00261   0.00030   0.00007
   2     1     6          0.32988  -0.05783  -0.00041  -0.00003  -0.00003
   3     1     6         -0.00023  -0.00361   0.17254   0.06060  -0.02432
   1     2     6         -0.01820   0.06537   0.00060   0.00008   0.00003
   2     2     6         -0.05550  -0.05715  -0.00053  -0.00007   0.00000
   3     2     6          0.00004  -0.00088   0.05284  -0.00727  -0.10655
   1     3     6          0.03236  -0.10444  -0.00096  -0.00011  -0.00004
   2     3     6         -0.19234  -0.07218  -0.00071  -0.00009   0.00000
   3     3     6          0.00009   0.00081  -0.02433  -0.10097  -0.04370
   1     4     7         -0.11760  -0.17134  -0.00162  -0.00021  -0.00007
   2     4     7         -0.18943  -0.00868  -0.00014  -0.00003  -0.00002
   3     4     7         -0.00006   0.00057  -0.02938  -0.01042  -0.04561
   1     5     6         -0.11718  -0.09611  -0.00092  -0.00011  -0.00002
   2     5     6         -0.08377   0.12684   0.00113   0.00013   0.00002
   3     5     6          0.00004  -0.00063   0.03165   0.04055   0.12183
   1     6     7         -0.02631   0.28601   0.00252   0.00026   0.00004
   2     6     7          0.05456  -0.00570   0.00000   0.00002   0.00000
   3     6     7         -0.00004  -0.00085   0.02862   0.02478   0.04020
   1     7     7          0.02146  -0.04146  -0.00033  -0.00003   0.00003
   2     7     7         -0.07961   0.07233   0.00064   0.00007   0.00003
   3     7     7          0.00017   0.00319  -0.17607   0.06433   0.09471
   1     8     6          0.17140  -0.02305  -0.00015   0.00000   0.00000
   2     8     6          0.00300   0.10503   0.00095   0.00010   0.00003
   3     8     6         -0.00015  -0.00248   0.14020  -0.06994  -0.07381
   1     9     7          0.25286  -0.02256  -0.00015   0.00000  -0.00003
   2     9     7         -0.11327   0.04571   0.00039   0.00007   0.00000
   3     9     7          0.00008   0.00106  -0.05529  -0.00340   0.14808
   1    10     7         -0.23164  -0.05006  -0.00046  -0.00006   0.00000
   2    10     7         -0.11410  -0.07088  -0.00071  -0.00009   0.00000
   3    10     7          0.00004   0.00002   0.00355  -0.01654  -0.02935
   1    11     8         -0.00907  -0.13782  -0.00125  -0.00014  -0.00003
   2    11     8          0.40108  -0.05705  -0.00043  -0.00004  -0.00003
   3    11     8          0.00001   0.00085  -0.04037  -0.01669   0.01242
   1    12     1          0.21189  -0.02277  -0.00016   0.00001   0.00001
   2    12     1          0.14719   0.11313   0.00103   0.00011   0.00001
   3    12     1         -0.00050  -0.00770   0.42670  -0.17103  -0.33981
   1    13     1          0.44797   0.11637   0.00120   0.00013   0.00003
   2    13     1         -0.09533   0.06239   0.00058  -0.00009   0.00017
   3    13     1         -0.00031   0.00170  -0.22149   0.87156  -0.66806
   1    14     1         -0.11162   0.49038   0.00465   0.00061   0.00025
   2    14     1         -0.04295   0.25249   0.00215   0.00018  -0.00015
   3    14     1          0.00107   0.01761  -0.78351  -0.39145  -0.58237
   1    15     1         -0.24798  -0.27922  -0.00272  -0.00036  -0.00020
   2    15     1         -0.12988  -0.37384  -0.00307  -0.00024   0.00001
   3    15     1         -0.00033   0.00458  -0.19964  -0.09487  -0.11625
   1    16     1         -0.22023   0.36394   0.00331   0.00048   0.00027
   2    16     1         -0.12039  -0.13659  -0.00137  -0.00024  -0.00010
   3    16     1         -0.00028  -0.00418   0.15445   0.15169   0.12570
                          16        17        18        19        20
                           A         A         A         A         A
       Frequencies ---   867.7306  887.6115  913.4026  996.8814 1040.1065
    Reduced masses ---     7.9134    7.3851    3.7887    1.6572    5.4327
   Force constants ---     3.5106    3.4281    1.8624    0.9703    3.4627
    IR Intensities ---   116.0574    9.2287  108.0276   81.0630  139.3842
  Raman Activities ---     0.7677    3.3951    0.3978    0.2772    6.1427
    Depol. (Plane) ---     0.7500    0.7335    0.7500    0.7500    0.7500
    Depol. (Unpol) ---     0.8571    0.8462    0.8571    0.8571    0.8571
 Coord Atom Element:
   1     1     6         -0.00022   0.09560   0.00027   0.00007  -0.00044
   2     1     6         -0.00008   0.01874  -0.00003  -0.00001  -0.00006
   3     1     6         -0.37849  -0.00004  -0.15586  -0.09258   0.31158
   1     2     6         -0.00002  -0.01110   0.00007   0.00001  -0.00038
   2     2     6          0.00004   0.00678  -0.00006  -0.00002   0.00001
   3     2     6          0.14532  -0.00003  -0.14206   0.05566  -0.34126
   1     3     6          0.00001   0.15244  -0.00007  -0.00001  -0.00028
   2     3     6          0.00001   0.07400  -0.00011  -0.00002   0.00100
   3     3     6          0.23219   0.00011   0.27907  -0.03525   0.31035
   1     4     7         -0.00003   0.25822  -0.00009   0.00000  -0.00022
   2     4     7         -0.00016   0.38281   0.00003   0.00004  -0.00038
   3     4     7         -0.24798  -0.00015  -0.00080   0.02231  -0.11048
   1     5     6          0.00014  -0.00780  -0.00011  -0.00002   0.00004
   2     5     6          0.00001  -0.09358   0.00004   0.00000   0.00005
   3     5     6          0.50311   0.00032  -0.23072  -0.04401   0.10924
   1     6     7         -0.00010   0.16031  -0.00005  -0.00002   0.00038
   2     6     7         -0.00007  -0.08558   0.00010   0.00002   0.00016
   3     6     7         -0.05486   0.00000   0.19259   0.05133  -0.14276
   1     7     7          0.00017  -0.32293  -0.00002   0.00000  -0.00116
   2     7     7          0.00004  -0.11138   0.00003   0.00002  -0.00220
   3     7     7         -0.06686  -0.00001   0.07391  -0.05258   0.05060
   1     8     6          0.00005  -0.10483   0.00002  -0.00004   0.00144
   2     8     6         -0.00004  -0.01471   0.00007   0.00001  -0.00067
   3     8     6          0.05089   0.00001  -0.04799   0.18585   0.12113
   1     9     7         -0.00002   0.05038  -0.00003   0.00000   0.00060
   2     9     7          0.00010  -0.15137   0.00003  -0.00001   0.00220
   3     9     7         -0.15863  -0.00007  -0.10732  -0.03913  -0.11762
   1    10     7         -0.00006  -0.20460   0.00011   0.00002  -0.00010
   2    10     7          0.00029  -0.09372  -0.00018  -0.00004   0.00017
   3    10     7         -0.14608  -0.00009   0.08174   0.01189  -0.02327
   1    11     8          0.00006  -0.01516  -0.00008  -0.00002   0.00005
   2    11     8         -0.00002   0.04218   0.00001   0.00001  -0.00029
   3    11     8          0.11397   0.00001   0.04901   0.02323  -0.07421
   1    12     1         -0.00001  -0.03456   0.00000   0.00001   0.00175
   2    12     1         -0.00023   0.32951   0.00008  -0.00006   0.00018
   3    12     1          0.34130   0.00027   0.27993  -0.95977  -0.69804
   1    13     1         -0.00013  -0.05423  -0.00001   0.00010  -0.00086
   2    13     1         -0.00002  -0.16578  -0.00002  -0.00001   0.00208
   3    13     1          0.41591   0.00014   0.16827   0.03015   0.14589
   1    14     1         -0.00048   0.23047   0.00049   0.00008   0.00024
   2    14     1         -0.00063  -0.00310   0.00015   0.00002   0.00026
   3    14     1         -0.14260  -0.00045  -0.79139  -0.13957   0.30263
   1    15     1         -0.00037  -0.03471   0.00023   0.00010  -0.00081
   2    15     1         -0.00073   0.14427   0.00052   0.00018  -0.00110
   3    15     1          0.07613  -0.00043  -0.11071  -0.02570   0.08667
   1    16     1          0.00110  -0.53203  -0.00047  -0.00018   0.00131
   2    16     1         -0.00007  -0.04662   0.00000   0.00000  -0.00008
   3    16     1          0.28625   0.00038  -0.11713  -0.01736   0.02886
                          21        22        23        24        25
                           A         A         A         A         A
       Frequencies ---  1043.7193 1114.8366 1120.9266 1146.7138 1211.9879
    Reduced masses ---     8.6529    2.8080    2.7209    3.7335    2.9398
   Force constants ---     5.5537    2.0562    2.0143    2.8925    2.5442
    IR Intensities ---    13.3204   25.8133    6.5772   14.6433   22.1075
  Raman Activities ---     7.5803    2.1207    6.9048    1.4512    5.4665
    Depol. (Plane) ---     0.4133    0.5141    0.2590    0.4680    0.2793
    Depol. (Unpol) ---     0.5848    0.6791    0.4114    0.6376    0.4366
 Coord Atom Element:
   1     1     6          0.04260   0.02062   0.13917   0.25341   0.17532
   2     1     6          0.01769   0.02087  -0.01645   0.04103   0.01493
   3     1     6          0.00255   0.00003   0.00008   0.00013   0.00001
   1     2     6          0.06842  -0.01400   0.03847   0.03587   0.08770
   2     2     6          0.01325   0.00981  -0.04343  -0.13049   0.03693
   3     2     6         -0.00275  -0.00002  -0.00004  -0.00006   0.00001
   1     3     6          0.06372  -0.03861   0.03021  -0.10679   0.07981
   2     3     6         -0.19733   0.00436  -0.02206  -0.08913   0.00278
   3     3     6          0.00248   0.00000   0.00002   0.00003  -0.00003
   1     4     7          0.04301  -0.05865   0.08432  -0.02557   0.15638
   2     4     7          0.06158   0.06508  -0.10049   0.14713  -0.11710
   3     4     7         -0.00089   0.00002  -0.00006  -0.00005   0.00003
   1     5     6          0.00469  -0.03095   0.00788  -0.04802   0.00235
   2     5     6         -0.00616   0.02538  -0.03261  -0.00376   0.08057
   3     5     6          0.00096  -0.00006   0.00026   0.00027  -0.00018
   1     6     7         -0.05550  -0.02870  -0.09554  -0.18894  -0.16780
   2     6     7         -0.03907  -0.17408   0.20604  -0.13908  -0.04427
   3     6     7         -0.00119   0.00000  -0.00013  -0.00015   0.00002
   1     7     7          0.23808  -0.01950  -0.03609   0.00627  -0.06632
   2     7     7          0.43925  -0.01371   0.00751  -0.03855  -0.02290
   3     7     7          0.00044   0.00000   0.00000   0.00002   0.00000
   1     8     6         -0.29432   0.23910   0.10071  -0.04557  -0.08272
   2     8     6          0.11805   0.12783   0.07940   0.00328  -0.01231
   3     8     6          0.00092   0.00004   0.00003  -0.00001   0.00000
   1     9     7         -0.10599  -0.10594  -0.12049   0.01126  -0.00405
   2     9     7         -0.43175  -0.12029  -0.01472   0.13108   0.01827
   3     9     7         -0.00096  -0.00002  -0.00001   0.00000   0.00001
   1    10     7          0.00173   0.05317  -0.01145   0.13575  -0.09628
   2    10     7         -0.01246   0.05813  -0.08492  -0.02001   0.11977
   3    10     7         -0.00024   0.00003  -0.00016  -0.00016   0.00014
   1    11     8         -0.00085   0.02112  -0.04780  -0.02619  -0.01813
   2    11     8          0.05278   0.02875  -0.03554   0.04769  -0.02003
   3    11     8         -0.00062  -0.00001  -0.00001  -0.00004   0.00000
   1    12     1         -0.35024   0.32197   0.12087  -0.09404  -0.08168
   2    12     1         -0.06814   0.42013   0.15687  -0.19067   0.04322
   3    12     1         -0.00537  -0.00016  -0.00009   0.00004  -0.00001
   1    13     1          0.18553  -0.59254  -0.50040   0.40716  -0.05324
   2    13     1         -0.41666  -0.19180  -0.06428   0.18957   0.01585
   3    13     1          0.00134   0.00004  -0.00001   0.00003  -0.00004
   1    14     1         -0.07856  -0.13409   0.07844  -0.21887  -0.25702
   2    14     1         -0.06720  -0.31997   0.44728  -0.17871  -0.15515
   3    14     1          0.00259   0.00000   0.00039   0.00052  -0.00017
   1    15     1          0.09059  -0.04103   0.25436   0.44115  -0.51394
   2    15     1          0.10714  -0.07186   0.27287   0.37659  -0.42627
   3    15     1          0.00088  -0.00006   0.00066   0.00067  -0.00049
   1    16     1         -0.15170   0.23073  -0.47208  -0.32768   0.54245
   2    16     1          0.01228   0.03421  -0.01652   0.05915   0.01919
   3    16     1          0.00026  -0.00002   0.00004   0.00000  -0.00001
                          26        27        28        29        30
                           A         A         A         A         A
       Frequencies ---  1245.2253 1387.4056 1434.7642 1478.3796 1487.0628
    Reduced masses ---     3.7805    3.2625    2.2355    2.1373    2.2616
   Force constants ---     3.4538    3.7000    2.7114    2.7523    2.9467
    IR Intensities ---    32.1351   42.4289   24.3460    1.4158  149.4171
  Raman Activities ---     2.6367   17.2153   18.2028   31.4360    1.7910
    Depol. (Plane) ---     0.6182    0.6498    0.3804    0.4360    0.7088
    Depol. (Unpol) ---     0.7641    0.7877    0.5511    0.6072    0.8296
 Coord Atom Element:
   1     1     6          0.05343  -0.07350  -0.09129  -0.05104   0.05917
   2     1     6         -0.00065   0.00052  -0.00748  -0.01296   0.04281
   3     1     6         -0.00001   0.00000   0.00001   0.00000   0.00000
   1     2     6          0.18456   0.27944   0.18211   0.04997  -0.06720
   2     2     6          0.23548   0.02193  -0.11285   0.13268   0.09612
   3     2     6          0.00000   0.00002   0.00001   0.00000   0.00000
   1     3     6         -0.04631   0.14654   0.02259  -0.05044  -0.01778
   2     3     6          0.16782  -0.07749  -0.07509  -0.08439   0.00924
   3     3     6          0.00002  -0.00002  -0.00001   0.00000   0.00000
   1     4     7         -0.14740  -0.13910  -0.03525   0.07046  -0.04256
   2     4     7         -0.08409   0.01679   0.03270   0.00182  -0.02656
   3     4     7         -0.00003  -0.00001   0.00000   0.00000   0.00000
   1     5     6         -0.07065   0.02240   0.09729   0.00199   0.16089
   2     5     6         -0.02921  -0.02559  -0.00793  -0.00295   0.18615
   3     5     6          0.00011  -0.00001  -0.00004   0.00000   0.00000
   1     6     7         -0.06502  -0.00178   0.02947   0.00018   0.03148
   2     6     7          0.00483  -0.00045   0.04325   0.00102   0.02359
   3     6     7         -0.00005   0.00000   0.00001   0.00000   0.00001
   1     7     7         -0.09202  -0.20623   0.05139  -0.01354  -0.00336
   2     7     7         -0.05463   0.09228  -0.05126  -0.09603  -0.00641
   3     7     7          0.00000  -0.00001   0.00000   0.00001   0.00000
   1     8     6         -0.09524   0.06992  -0.08961   0.08545   0.02927
   2     8     6         -0.04473  -0.02489   0.00554   0.11448   0.00175
   3     8     6          0.00001   0.00001   0.00000   0.00000   0.00000
   1     9     7          0.12014  -0.02873  -0.09245  -0.16156   0.01372
   2     9     7         -0.13887   0.02909   0.08233  -0.03351  -0.02742
   3     9     7         -0.00002   0.00002   0.00001  -0.00001   0.00000
   1    10     7          0.11528   0.01842  -0.03926  -0.01524  -0.07080
   2    10     7         -0.01359  -0.00737  -0.01473   0.00549  -0.09107
   3    10     7         -0.00008   0.00002   0.00003   0.00000  -0.00001
   1    11     8          0.00458   0.00602  -0.00048   0.01324  -0.01051
   2    11     8         -0.05558   0.02639   0.03047  -0.00701  -0.09111
   3    11     8          0.00001   0.00000  -0.00001   0.00000   0.00001
   1    12     1          0.07311  -0.12085   0.08787   0.02788   0.00283
   2    12     1          0.71632  -0.83707   0.84486  -0.17574  -0.13882
   3    12     1         -0.00001   0.00002  -0.00002   0.00000   0.00001
   1    13     1          0.28550  -0.22278   0.04089   0.90874   0.08369
   2    13     1         -0.12845   0.00309   0.11146   0.09940  -0.02383
   3    13     1          0.00003  -0.00007  -0.00001   0.00007   0.00000
   1    14     1          0.03576  -0.12301  -0.23510   0.11259  -0.48530
   2    14     1          0.13964  -0.16050  -0.30201   0.14945  -0.65529
   3    14     1          0.00019   0.00006   0.00002  -0.00002   0.00002
   1    15     1          0.28268   0.04549  -0.07080  -0.04104   0.04033
   2    15     1          0.19580   0.02234  -0.05165  -0.02489   0.07585
   3    15     1          0.00038  -0.00015  -0.00024   0.00006  -0.00013
   1    16     1         -0.09778  -0.00432  -0.06082   0.01703  -0.43800
   2    16     1          0.02351  -0.00122  -0.01312  -0.00156  -0.03654
   3    16     1         -0.00003  -0.00003   0.00003   0.00001   0.00003
                          31        32        33        34        35
                           A         A         A         A         A
       Frequencies ---  1538.4878 1631.0349 1672.6626 1723.9960 1769.7611
    Reduced masses ---     4.0129    5.1918    6.0813    4.5823    2.9953
   Force constants ---     5.5963    8.1376   10.0245    8.0242    5.5275
    IR Intensities ---     0.8377   22.4396  160.2548  452.8450  479.1207
  Raman Activities ---    12.6615   95.0190   14.1154   61.4124   11.9758
    Depol. (Plane) ---     0.7441    0.1894    0.5831    0.3409    0.3303
    Depol. (Unpol) ---     0.8532    0.3185    0.7366    0.5085    0.4966
 Coord Atom Element:
   1     1     6         -0.04910   0.07273  -0.13801   0.06823   0.04258
   2     1     6         -0.02965   0.03359  -0.08520  -0.01139   0.00424
   3     1     6          0.00000   0.00001   0.00000   0.00000  -0.00001
   1     2     6         -0.05700  -0.06310   0.18065  -0.13820  -0.01954
   2     2     6          0.19515   0.00558  -0.25337  -0.14990   0.04479
   3     2     6          0.00001  -0.00001  -0.00001  -0.00001   0.00001
   1     3     6          0.22422   0.20128  -0.11965   0.35443  -0.05719
   2     3     6         -0.22621   0.06192   0.27068   0.23366  -0.01798
   3     3     6         -0.00003   0.00001   0.00003   0.00003   0.00000
   1     4     7         -0.02576  -0.14309   0.07117  -0.14833  -0.12678
   2     4     7         -0.03597   0.03946  -0.12129  -0.05215   0.06936
   3     4     7         -0.00001   0.00000  -0.00001  -0.00001   0.00000
   1     5     6         -0.06706  -0.03504   0.04825   0.04183   0.33879
   2     5     6          0.21343  -0.20303   0.28103   0.04744  -0.09219
   3     5     6          0.00009  -0.00004   0.00005   0.00002  -0.00005
   1     6     7         -0.02066   0.02974  -0.02390  -0.03937  -0.11257
   2     6     7         -0.15565   0.11081  -0.13379  -0.07084  -0.05914
   3     6     7          0.00000  -0.00001   0.00001  -0.00001   0.00000
   1     7     7          0.05526   0.10906   0.00891  -0.01394   0.01237
   2     7     7         -0.10196  -0.24950  -0.11107   0.05800  -0.01268
   3     7     7          0.00000   0.00000   0.00000  -0.00001   0.00000
   1     8     6         -0.10036  -0.14736  -0.07571   0.04835  -0.00462
   2     8     6          0.02898   0.35024   0.24749  -0.09371   0.02017
   3     8     6          0.00000  -0.00001   0.00000  -0.00001   0.00000
   1     9     7          0.00243   0.02051   0.06425  -0.18233   0.03704
   2     9     7          0.10004  -0.03320  -0.08855  -0.01968  -0.00381
[...]
 258395,0.0513822,-0.0161503,0.0384452,-0.7097146,-0.3169848,-0.1664948
 ,0.0133653,0.1501983,-0.4779049,0.0192859,-0.0125649,0.0073311,-0.3125
 744,0.1763663,0.1089024,-0.0052349,-0.237136,0.4240317,-0.0371912,0.02
 3177,-0.0239423,0.0836665,-0.7381418,0.0535641,-0.0121523,0.1992022,-0
 .4020034,-0.0030986,-0.0242632,-0.0086822,-0.5336763,-0.7417506,-0.605
 1194,0.058399,-0.7001784,-1.3940256,0.0056793,0.0656045,0.0082267,-0.9
 996344,-1.0871629,0.5626183,-0.0692813,0.4478669,-1.088149,0.0670423,-
 0.0599563,0.0715196,-0.4861889,0.0036971,-0.0456211,-0.002818,-0.02879
 79,0.0638192,0.0081057,-0.0042041,0.0074571,0.1751989,0.3101077,-0.029
 9777,-0.0024295,-0.0554105,0.2417441,0.0140303,-0.0002941,0.0149733,0.
 4376872,0.2359513,-0.0155361,-0.0055478,-0.0032685,0.1687256,0.0199742
 ,-0.0065854,0.0194866,0.4122985,0.2362808,0.0634733,-0.0129418,0.05849
 69,0.205656,0.0220648,-0.0119838,0.0228569,0.4473114,0.1681984,-0.0362
 57,-0.0074825,0.0007477,0.3130594,0.0113324,-0.0105333,0.0101761,0.448
 6035\Polar=94.0750751,7.8725547,81.3793625,2.1120281,-4.6093917,21.914
 7649\PolarDeriv=8.1084897,-9.5169811,2.3509378,1.0851397,-0.5137319,-0
 .4069344,-3.7666382,0.9639702,-2.1581795,-0.1536923,-0.0079164,-0.5610
 761,0.5741645,-0.3142236,-0.0818939,0.6229512,-2.1378306,0.4252337,-6.
 6504537,7.6632929,-0.1649413,-0.9281774,0.2255901,0.654923,15.1503569,
 8.1963851,8.4873651,-0.0629413,-0.0569842,0.3607658,-1.5328845,-0.4682
 247,-0.1104015,0.5489364,3.5849621,-0.5467176,7.8868746,-0.8450665,-9.
 0147412,0.4016256,0.9015735,0.6015228,-15.5112559,-10.1265501,-16.8701
 391,0.1035207,0.7044535,0.1388138,1.6831562,0.8071516,0.424747,-1.5685
 403,-3.7214962,0.4982328,13.0112338,2.9886489,10.9651936,0.105846,-0.7
 520231,0.0899701,6.1910373,8.3589644,3.2587759,-0.1126168,-0.0549118,-
 0.5366228,-0.3016645,-0.2282569,0.0248717,3.8307546,-0.7716846,0.46469
 58,-11.7992957,-1.7101485,-6.7946652,-0.1895877,0.5041694,-0.2358318,1
 .5039918,-8.0671352,-6.9014802,0.4682735,0.2091691,0.1008567,-0.341855
 7,0.3835544,0.1967887,-2.9856563,-0.6806132,-0.1289106,3.9840403,-0.44
 79249,-1.8549461,0.1947184,0.1040839,-0.0796852,-1.9420712,7.1022675,2
 .6016538,-0.667136,0.1278125,0.1993241,0.3146189,-0.6244753,-0.182445,
 0.0274346,0.6040296,-0.1217449,-13.6690105,-8.6220821,-6.1311563,0.307
 5447,0.0513741,-0.4642685,-2.4314314,-3.5470763,8.5993885,-0.0139451,-
 0.6776184,-0.2102436,-0.1159907,-0.3421299,-0.5746369,-2.6736481,2.254
 3146,-0.5708258,12.3780018,4.8300296,1.9475608,-0.1378494,0.00177,0.08
 16861,1.9475034,-0.4542283,-5.546873,0.5760305,0.4664156,-0.4145216,-0
 .1064914,0.6406582,0.6535682,5.4225729,0.7374,0.3289415,-5.1053888,1.1
 82339,8.6280985,-0.3319028,-0.740647,-0.6954088,-2.8156095,0.0469252,4
 .809628,0.0377641,-0.3447089,0.1173173,-0.1018012,0.1748955,0.0165369,
 1.846945,0.4904489,0.0268487,3.9630734,2.4681796,-0.8997893,-0.0143655
 ,0.2750023,0.1736047,-2.4027109,-0.5199321,3.2743583,-0.1745863,-0.492
 4675,0.1726585,0.4386617,0.1028162,-0.7380275,-1.4865933,-2.5628199,0.
 3033981,-11.26723,7.1042549,-3.4114289,-0.8742203,0.3829155,-0.276443,
 6.601334,-6.2347803,10.3016214,0.4781025,-0.7472979,0.2243664,-0.71321
 07,0.3556432,-0.3348774,-3.4421052,3.9457293,-0.9282267,8.9043646,3.81
 45627,2.30804,-0.0286882,-0.0486832,0.3823153,2.9014588,3.3634956,3.25
 58509,-0.0852758,-0.0440927,0.2117121,0.0200656,-0.0779612,-0.0246873,
 1.0808031,0.9384074,-0.0748499,6.597358,-2.8827487,1.5330774,0.4552525
 ,-0.2135115,-0.1157664,-3.7702153,3.2804029,-2.3694793,-0.3335606,0.24
 70244,-0.0155441,0.4850941,-0.2658822,0.1075311,0.9967844,-0.8989888,0
 .2130925,-8.5096368,-0.6385223,-0.5574804,-0.221481,0.0421495,0.149669
 9,-0.2125093,-0.8008616,0.1043395,-0.0679304,-0.0540522,0.0163002,-0.1
 93698,-0.0763752,-0.0631291,-1.5218972,-0.1980304,-0.0797242,-8.034518
 9,-3.6750171,-2.4810063,0.0525188,0.0962758,0.2145978,-0.5077105,-1.75
 86177,-2.1676936,0.0036857,0.0957785,0.0441073,-0.136786,-0.0966084,0.
 0444336,-1.4541786,-0.2738231,-0.0564812,0.2020983,-1.7128167,3.577247
 ,0.1236266,-0.3163074,-0.0739518,-0.93553,0.1967706,-8.6791368,0.00430
 75,0.6293964,0.151786,0.0286217,0.0294184,0.6416213,0.755437,-1.310005
 3,0.2470378\HyperPolar=-89.5356706,23.4422274,110.4486932,44.67575,-5.
 6810239,-7.2049108,-1.5695952,5.4673455,-12.9527486,3.7833751\PG=C01 [
 X(C5H5N5O1)]\NImag=0\\0.91996068,-0.31156126,0.77702580,0.04964397,-0.
 05195228,0.29458529,-0.27531035,-0.00024754,-0.00620176,0.88767219,0.0
 0814403,-0.12426360,0.00130396,-0.03862243,0.69830156,-0.00686053,0.00
 096401,-0.11255059,0.02866556,-0.04093010,0.22090471,-0.03603294,0.053
 38349,-0.00590638,-0.18140488,0.09606983,-0.00978310,0.81129231,0.0631
 3541,0.03303460,0.00006155,0.06680576,-0.30304581,0.01665132,0.0942575
 1,0.91469582,-0.00672728,-0.00030420,0.00432964,-0.00737999,0.01773736
 ,-0.13245570,0.01294063,-0.04947208,0.27126407,-0.05153640,-0.03650328
 ,0.00131176,0.05402468,0.00093016,0.00113905,-0.15062118,-0.07935613,0
 .00400662,0.71659034,-0.03044439,-0.00196643,-0.00160721,0.00520913,-0
 .04836240,0.00595272,-0.04908469,-0.31378104,0.01684752,0.13473877,0.5
 0870398,0.00083240,-0.00182810,-0.00722321,0.00078303,0.00578049,0.021
 39299,0.00152515,0.01570683,-0.08633965,0.01203348,-0.02757795,0.11218
 864,0.09359539,0.04614777,-0.00021963,-0.04542824,0.01123704,-0.002638
 14,-0.08348835,-0.09270057,0.00448834,-0.42556389,-0.02676958,-0.01020
 819,0.91308138,0.00017693,-0.05830117,0.00477789,0.01300937,-0.0019597
 9,0.00065726,-0.08608667,-0.01483173,-0.00220409,0.00632744,-0.1381059
 5,0.00343670,0.10747623,0.84181635,0.00354916,0.00653047,-0.00046644,-
 0.00279478,0.00059030,-0.00011365,0.00395349,-0.00244998,-0.00140334,-
 0.01289593,0.00218111,-0.09975727,0.01596448,-0.04369991,0.26287197,-0
 .20622691,-0.04999568,-0.00015626,-0.01430894,-0.05433882,0.00327163,0
 .00763070,0.02810567,-0.00169618,-0.06851905,0.03956900,-0.00703639,-0
 .23168209,0.07429460,-0.01129190,0.95109578,-0.00389693,-0.15200747,0.
 00456566,-0.04220601,-0.00904278,0.00050625,-0.00661024,-0.04370677,0.
 00265521,0.06467989,0.01756594,0.00358225,0.00604991,-0.26536814,0.014
 16209,-0.03035820,0.70790164,-0.00394220,0.00277264,-0.09499072,0.0022
 7731,0.00003363,0.01676350,0.00114417,0.00396393,-0.00858466,-0.009096
 34,0.00263595,0.03073653,-0.00571556,0.01681370,-0.09649136,0.03388863
 ,-0.04835227,0.13660723,-0.03321275,-0.03505143,0.00189138,-0.13280356
 ,-0.09082714,0.00596104,0.01140852,-0.02563336,0.00170315,-0.01560700,
 -0.00658024,-0.00030067,0.01910859,-0.00352785,0.00106103,-0.00673798,
 0.01246052,-0.00153764,0.65616302,-0.00739476,0.00593482,-0.00135573,-
 0.03213439,-0.19140740,0.00675771,0.01015375,-0.08007679,0.00876457,-0
 .00366884,-0.00793530,0.00105793,0.01238376,-0.00205778,0.00054079,0.0
 0188486,0.00949193,-0.00014656,-0.10784791,0.51408580,-0.00037930,-0.0
 0240683,-0.00703902,0.00115162,0.00455163,-0.09420253,-0.00123750,0.00
 737981,0.02137873,-0.00053890,0.00094903,0.00657624,-0.00024850,-0.000
 06174,-0.00120083,-0.00067068,0.00024862,0.00676452,0.02878967,-0.0354
 6105,0.13531484,0.01901377,-0.00296646,0.00072250,-0.14792405,-0.05356
 978,-0.00177010,-0.04220853,-0.05164843,0.00194794,0.00157111,0.008839
 32,-0.00080417,-0.01344939,0.00227071,-0.00076065,0.00060041,-0.007829
 92,0.00070499,-0.43758065,0.12031966,-0.02277146,1.07816731,-0.0198675
 7,-0.01577404,0.00106263,0.00844177,-0.00287585,0.00173482,-0.09433140
 ,-0.04089612,0.00123204,-0.00974470,-0.00645171,0.00046249,0.01942069,
 -0.00268836,0.00109640,0.00017213,0.01038081,-0.00093358,0.16342279,-0
 .17104413,0.01218504,0.10385252,0.62434395,0.00210523,0.00170431,0.006
 31458,-0.00684848,-0.00060569,0.01425286,0.00544428,0.00284370,0.01782
 449,0.00072206,0.00116422,0.00355556,-0.00216667,0.00044299,0.00155257
 ,0.00004939,-0.00123486,-0.00095419,-0.02630170,0.01053611,-0.10007781
 ,0.02530709,-0.03172080,0.19243564,0.01647262,0.01120523,-0.00059334,-
 0.09137733,0.06950310,-0.00993448,-0.32052471,-0.02634192,-0.00594353,
 -0.01306840,-0.01943454,0.00091087,0.00616381,0.00637558,-0.00046106,-
 0.00688934,-0.00535752,0.00016595,-0.04665765,0.02875833,-0.00537891,-
 0.14207593,-0.02533527,-0.00006736,0.92115790,0.01501727,-0.00778647,0
 .00185091,-0.00763763,-0.00810852,0.00203548,-0.00980700,-0.17788629,0
 .00542302,-0.04607984,0.00621186,-0.00187553,-0.01166742,-0.00492081,0
 .00032488,-0.00334481,-0.00446886,0.00027260,0.08180671,-0.08458059,0.
 01273697,-0.01234483,-0.24164690,0.01231553,-0.21503923,0.80274844,-0.
 00090349,0.00170587,0.00770245,-0.00359917,0.00495615,0.01963064,-0.00
 729269,0.00480161,-0.10772290,0.00309549,-0.00085490,0.00497264,0.0010
 2217,0.00101142,0.00441815,-0.00000353,0.00019344,0.00036423,-0.009738
 25,0.01072913,0.03178199,-0.00112864,0.01180587,-0.08659399,0.04697383
 ,-0.06187125,0.15314336,-0.01879852,-0.00678507,-0.00027518,0.00755602
 ,-0.00249328,0.00052109,0.00062826,0.01608324,-0.00162491,-0.07112309,
 -0.07191709,0.00261113,-0.20458927,-0.09790277,0.00330776,0.02563349,0
 .04264194,-0.00323141,-0.00507802,-0.00269106,0.00003763,0.00202318,-0
 .00563895,0.00055366,0.00114094,0.00092720,-0.00006103,0.98322769,0.00
 065074,0.01142761,-0.00066522,0.00221742,-0.00283199,0.00024275,0.0096
 6019,0.01060891,0.00022745,-0.04229088,-0.00127583,-0.00025005,-0.0811
 7940,-0.34181155,0.01839060,-0.01580600,-0.07170443,0.00678580,-0.0056
 7308,-0.00081249,-0.00016891,0.00138571,-0.00726251,0.00061648,0.00122
 316,0.00462069,-0.00027127,-0.03579000,0.87093748,-0.00089610,-0.00094
 276,0.00310256,0.00014811,0.00006390,-0.00085674,-0.00109061,0.0004863
 1,0.00872292,0.00014855,-0.00138364,0.01532388,0.00204015,0.01789932,-
 0.08035976,0.00155928,0.00901619,0.01813488,0.00027358,-0.00005937,-0.
 00024620,-0.00001850,0.00033965,-0.00041283,-0.00008320,-0.00027669,0.
 00075783,0.03663804,-0.06741990,0.07136242,-0.41537891,0.33210956,-0.0
 3915992,-0.05356226,0.05471891,-0.00764888,-0.00016865,-0.02502333,0.0
 0180074,0.01343220,0.01221753,-0.00046791,-0.01748992,0.00012621,-0.00
 085589,0.03775513,0.00218524,0.00021955,0.01016788,0.00074198,0.000348
 18,-0.00434287,0.00639179,-0.00066647,-0.00664177,-0.00171271,-0.00002
 516,0.00389598,0.00274188,-0.00007822,0.43131899,0.33358093,-0.4757206
 5,0.04328977,0.02836371,0.00176629,0.00334658,-0.00947737,0.00572733,-
 0.00030679,0.00525088,-0.00712661,0.00072527,-0.01671051,0.00494142,-0
 .00065157,0.04320627,-0.10869315,0.01278945,-0.00146191,0.00026896,-0.
 00012666,0.00383858,-0.00063795,0.00015044,-0.00007038,0.00395638,-0.0
 0051149,0.00354924,-0.00537472,0.00058858,-0.39142184,0.57682006,-0.03
 929400,0.04324200,-0.10828031,-0.00547912,0.00434535,0.02874803,0.0005
 2879,-0.00090217,0.00644377,0.00010638,0.00099327,-0.00076901,0.000525
 59,-0.00001371,0.00476396,-0.00313744,0.01121747,0.02601909,0.00052802
 ,-0.00004314,-0.00056077,-0.00045814,0.00024875,-0.00060576,-0.0001613
 1,-0.00057293,-0.00221040,-0.00015038,0.00056270,0.00015274,0.04680317
 ,-0.05845351,0.05303640,0.00049812,-0.00120254,0.00006532,-0.00186276,
 0.00381381,-0.00079907,0.00012269,0.00246283,-0.00032326,0.00053882,-0
 .00025617,0.00000152,0.00004849,0.00038645,-0.00004754,-0.00063871,-0.
 00026985,0.00002717,-0.02260077,-0.01488838,0.00049904,-0.32686627,-0.
 14429329,0.00099842,0.00851546,0.00651223,-0.00023542,-0.00001977,-0.0
 0020319,0.00002381,-0.00031778,0.00020027,-0.00002980,0.34285435,-0.00
 023754,0.00101510,0.00002022,0.00324126,0.00019832,0.00099940,0.006560
 28,-0.00601113,0.00101378,-0.00230154,0.00002709,-0.00000402,0.0004573
 8,-0.00052832,0.00009872,0.00020132,0.00040434,-0.00008850,0.02007214,
 0.01399995,-0.00067841,-0.14184596,-0.14346759,0.00287333,-0.03501165,
 -0.01425640,-0.00010672,-0.00025419,0.00005757,-0.00003169,-0.00008341
 ,0.00004970,-0.00000468,0.14899701,0.14861783,-0.00001360,-0.00001567,
 0.00137900,-0.00074866,0.00102067,0.01077054,-0.00065998,0.00085927,0.
 00323059,0.00016849,0.00007363,0.00104809,-0.00005252,0.00009640,0.000
 45463,-0.00001126,-0.00010662,-0.00076384,-0.00236826,-0.00200754,-0.0
 0350662,0.00079710,0.00277699,-0.04272017,0.00316744,0.00147352,0.0006
 8903,0.00002813,-0.00003037,-0.00020836,-0.00000664,0.00000617,0.00003
 067,-0.00030637,-0.00403577,0.03046776,0.00026338,0.00222483,-0.000250
 42,-0.00599448,-0.00313322,-0.00014326,-0.01622771,0.03126397,-0.00322
 842,0.00471123,0.00054509,0.00028563,-0.00232407,-0.00054716,-0.000030
 70,0.00096278,-0.00095368,0.00012074,0.00342930,-0.00640019,0.00046346
 ,0.01331769,-0.00221077,0.00084460,-0.32664957,0.20319339,-0.02813455,
 0.00079419,0.00076375,-0.00002219,-0.00032213,-0.00042575,0.00004609,-
 0.00026451,0.00014587,0.00001100,0.32844984,0.00129167,0.00137977,0.00
 010500,-0.00647967,-0.00093112,0.00020069,-0.01014817,0.01822814,-0.00
 174846,0.00191194,-0.00076708,-0.00019351,0.00086185,0.00039573,-0.000
 02789,0.00001158,-0.00062514,0.00003872,-0.00001920,-0.00687408,0.0009
 7845,0.03009267,-0.00158715,0.00092349,0.20901611,-0.27397678,0.028462
 71,-0.00020981,-0.00048429,0.00001197,-0.00082298,0.00013524,-0.000093
 30,-0.00116689,-0.00023686,-0.00009608,-0.22425279,0.26533958,-0.00017
 448,0.00014056,0.00204845,0.00013045,0.00032561,0.00450822,0.00014887,
 -0.00017574,0.00158448,0.00017522,-0.00024545,-0.00399508,-0.00014661,
 -0.00008185,-0.00034358,0.00004171,0.00000207,-0.00015878,-0.00005965,
 0.00073800,0.00500668,-0.00180118,-0.00029121,-0.00424877,-0.02859682,
 0.02822972,-0.02618338,0.00005638,0.00004969,-0.00024098,0.00007904,-0
 .00007807,-0.00061121,0.00011853,-0.00004659,-0.00086443,0.03004698,-0
 .02860186,0.02296915,-0.01497880,0.00022381,-0.00093837,0.00083801,-0.
 00191249,0.00006058,0.00037044,-0.00135649,0.00013977,0.00435665,0.002
 36833,-0.00024537,-0.01818956,-0.00305286,-0.00053377,-0.48680957,-0.0
 2798200,-0.01520990,0.00003710,0.00049801,-0.00005032,-0.00016141,-0.0
 0005043,0.00001196,0.00043309,0.00001151,0.00002890,0.00228352,-0.0025
 9233,0.00050222,0.00227725,0.00155914,0.00017506,-0.00001405,0.0000406
 2,-0.00000285,-0.00005316,0.00006636,-0.00001403,0.50829593,-0.0501872
 2,0.00722123,-0.00178219,-0.00010991,-0.00829053,0.00095071,-0.0010840
 1,-0.00161691,0.00006037,0.00364610,-0.00641119,0.00112492,0.04199845,
 0.01256243,0.00076876,-0.02997608,-0.09056387,0.00371444,-0.00149817,0
 .00079205,-0.00009917,-0.00019723,-0.00062435,0.00001363,0.00006941,0.
 00049130,-0.00006615,-0.00138715,0.00043635,-0.00053120,0.00814656,0.0
 0358285,-0.00044069,-0.00012821,0.00013371,-0.00001793,-0.00007693,-0.
 00004839,0.00001508,0.03138458,0.08535183,0.00319710,0.00015962,0.0090
 9469,-0.00008422,0.00088279,0.00327471,0.00011827,0.00005197,-0.000380
 83,-0.00035086,0.00107437,0.00555309,-0.00419666,-0.00097063,0.0021614
 9,-0.01508165,0.00378754,-0.03203994,0.00011355,-0.00002323,0.00028537
 ,0.00002429,0.00001925,-0.00036724,0.00002344,-0.00006840,-0.00034272,
 0.00039615,-0.00056685,-0.00526449,-0.00036274,-0.00069655,-0.00557345
 ,0.00001096,-0.00001155,-0.00002451,-0.00000217,0.00002047,0.00016959,
 0.01618951,-0.00415681,0.02090307,0.00026310,-0.00149291,0.00013548,-0
 .00030211,0.00024707,-0.00002366,-0.00036734,-0.00081374,-0.00008874,0
 .00216090,-0.00093208,0.00015282,-0.01234173,0.00305939,-0.00067421,0.
 00099328,0.00288709,-0.00001845,0.00040286,0.00004668,0.00001652,-0.00
 009346,0.00042428,-0.00003463,0.00005499,-0.00024693,0.00002598,-0.509
 37372,-0.03066844,-0.01567020,-0.00046428,0.00060975,-0.00005949,0.000
 01884,-0.00000310,0.00000390,-0.00007597,0.00001665,-0.00001164,0.0014
 8490,-0.00020152,-0.00003973,0.52805796,-0.00093996,-0.00195052,0.0001
 1076,0.00068822,0.00032895,-0.00001878,-0.00183657,0.00078417,0.000171
 77,-0.00270874,-0.00521179,0.00034975,-0.03971900,0.00532810,-0.001907
 10,0.00120101,0.00321940,-0.00063406,-0.00012688,-0.00022594,0.0000036
 5,0.00005263,-0.00020829,0.00001109,0.00031907,-0.00029706,0.00002772,
 -0.02558565,-0.09326201,0.00609446,0.00018731,0.00066891,-0.00006535,0
 .00002612,-0.00004681,-0.00000161,0.00001206,0.00000563,0.00001650,0.0
 0083185,-0.00306905,0.00054255,0.03423813,0.08184108,0.00010139,0.0000
 9621,-0.00015639,-0.00006540,-0.00003453,-0.00022141,-0.00001276,0.000
 20070,0.00375917,0.00030728,0.00041128,0.00028262,0.00273418,-0.000417
 12,-0.00034360,0.00011897,-0.00056568,-0.00493632,0.00003515,0.0000116
 9,-0.00012148,-0.00000661,0.00003118,-0.00010111,-0.00002204,0.0000025
 2,-0.00010189,-0.01594622,0.00596058,-0.00862318,-0.00002727,-0.000050
 86,-0.00021182,0.00000169,-0.00000296,-0.00008065,-0.00001212,0.000016
 71,0.00020032,-0.00013012,0.00050597,0.00302384,0.01608070,-0.00495037
 ,0.00716245,0.00140852,0.00051145,-0.00006917,0.00018805,0.00023321,-0
 .00001773,-0.00040864,0.00075957,-0.00001489,-0.00134692,0.00193160,-0
 .00007332,0.02254883,-0.02238559,0.00251052,-0.00285898,-0.00544025,0.
 00020299,-0.00043889,0.00023849,-0.00003056,0.00000909,-0.00065359,0.0
 0004863,-0.00005411,0.00041210,-0.00002443,-0.21820087,0.19556049,-0.0
 2347471,-0.00015885,-0.00059101,0.00005659,-0.00001215,0.00002151,-0.0
 0000592,-0.00001680,-0.00016930,0.00000724,-0.00017034,-0.00039868,0.0
 0004478,-0.01041823,0.03336040,-0.00315682,0.20993029,0.00253264,0.000
 73143,0.00021428,-0.00053905,0.00052466,-0.00005084,-0.00161894,-0.001
 22638,-0.00009748,0.00516878,0.00488646,-0.00049747,0.02271340,-0.0344
 7044,0.00405234,-0.00482685,-0.00278346,0.00033412,0.00048503,0.000441
 00,-0.00003042,-0.00024919,0.00044017,-0.00003397,0.00012051,-0.000100
 00,-0.00001214,0.18745339,-0.37326879,0.03614487,-0.00050271,-0.000364
 06,-0.00002006,0.00000981,0.00004349,0.00000494,-0.00014847,0.00004681
 ,0.00000354,-0.00003761,0.00005254,-0.00004454,-0.00717034,0.01209524,
 -0.00121532,-0.20339040,0.39295132,-0.00023827,0.00013414,0.00215003,0
 .00004550,-0.00002151,0.00015442,0.00017938,-0.00000703,-0.00165077,-0
 .00033235,-0.00061394,-0.00354604,-0.00118243,0.00231338,0.00425708,0.
 00015568,0.00032264,0.00352983,-0.00005040,-0.00003930,-0.00015310,0.0
 0001555,-0.00004952,0.00014616,0.00000053,-0.00000035,-0.00030506,-0.0
 2286084,0.03653652,-0.02134469,0.00004843,-0.00002077,-0.00037193,-0.0
 0000499,0.00000544,0.00009827,0.00000532,0.00000288,0.00015933,0.00001
 674,-0.00005974,-0.00047269,0.00020535,0.00024902,0.00046944,0.0239967
 9,-0.03875186,0.01687972\\-0.00003724,-0.00005554,0.00003061,0.0000925
 4,0.00010279,0.00005437,-0.00001958,-0.00004598,-0.00005120,-0.0001020
 0,-0.00001764,0.00001039,0.00005353,-0.00002715,0.00000359,0.00007485,
 0.00007674,-0.00001120,-0.00006514,0.00000034,-0.00005256,-0.00004262,
 -0.00003675,0.00001522,-0.00000821,-0.00000621,0.00002050,0.00004757,-
 0.00001034,-0.00001594,0.00001728,0.00002233,-0.00001835,-0.00000802,0
 .00000570,0.00000621,-0.00000491,-0.00000297,-0.00000542,0.00000605,0.
 00000677,-0.00000169,0.00000315,0.00000185,0.00001865,-0.00000725,-0.0
 0001394,-0.00000318\\\@


 IT IS NOT EASY TO DESCRIBE
     THE SEA WITH THE MOUTH

                   -- KOKYU
 Job cpu time:  0 days  0 hours  1 minutes 29.7 seconds.
 File lengths (MBytes):  RWF=     34 Int=      0 D2E=      0 Chk=      3 Scr=      1
 Normal termination of Gaussian 09 at Thu Aug 16 14:57:52 2012.

------------------------------------------------------------
Sender: LSF System <lsfadmin@node19>
Subject: Job 179195: <g09 freq.com> Done

Job <g09 freq.com> was submitted from host <user> by user <lan>.
Job was executed on host(s) <4*node19>, in queue <simul>, as user <lan>.
</home/simul/lan> was used as the home directory.
</home/simul/lan/sci/gaussian/guanine/test_normal> was used as the working directory.
Started at Thu Aug 16 14:57:23 2012
Results reported at Thu Aug 16 14:58:15 2012

Your job looked like:

------------------------------------------------------------
# LSBATCH: User input
g09 freq.com
------------------------------------------------------------

Successfully completed.

Resource usage summary:

    CPU time   :     89.77 sec.

The output (if any) is above this job summary.



PS:

Read file <freq.err> for stderr output of this job.

