[Molden Format] 
[Atoms] Angs                                                                    
   H     1    1             0.0000000000        0.0000000000        0.0000000000
   H     2    1             0.6841700000        0.0000000000        0.0000000000
[STO]                                                                           
    1    0    0    0    0             1.4738648100        1.0095121222          
    2    0    0    0    0             1.4738648100        1.0095121222          
[MO]                                                                            
 Sym= Ag                                                                        
 Ene=       -15.6013421726                                                      
 Spin = Alpha                                                                   
 Occup =   2.0                                                                  
    1            -0.7071067812                                                  
    2            -0.7071067812                                                  
 Sym= B3u                                                                       
 Ene=         1.6004931274                                                      
 Spin = Alpha                                                                   
 Occup =   0.0                                                                  
    1            -0.7071067812                                                  
    2             0.7071067812                                                  
[FR-COORD]    2                                                                 
   H              0.0000000000        0.0000000000        0.0000000000          
   H              1.2929188706        0.0000000000        0.0000000000          
[FREQ]    6                                                                     
     3618.3251687812
[FR-NORM-COORD]    6                                                            
vibration     1
       -0.7043563570        0.0000000000        0.0000000000                    
        0.7043563570        0.0000000000        0.0000000000                    
[GEOCONV] 
energy 
       -5.0275074171
       -5.0195888562
       -5.0197598828
       -5.0275072846
       -5.0275072846
       -5.0275072846
       -5.0275072846
max-force 
        0.0007515758
        3.0106635072
        2.9109319616
        0.0121986280
        0.0121986148
        0.0121986262
        0.0121986284
rms-force 
        0.0001771474
        0.7096201935
        0.6861132416
        0.0028753300
        0.0028753257
        0.0028753275
        0.0028753289
[GEOMETRIES] XYZ 
    2
                                        
  H         0.0000000000        0.0000000000        0.0000000000
  H         0.6841700000        0.0000000000        0.0000000000
    2
                                        
  H         0.0052916700        0.0000000000        0.0000000000
  H         0.6841700000        0.0000000000        0.0000000000
    2
                                        
  H        -0.0052916700        0.0000000000        0.0000000000
  H         0.6841700000        0.0000000000        0.0000000000
    2
                                        
  H         0.0000000000        0.0052916700        0.0000000000
  H         0.6841700000        0.0000000000        0.0000000000
    2
                                        
  H         0.0000000000       -0.0052916700        0.0000000000
  H         0.6841700000        0.0000000000        0.0000000000
    2
                                        
  H         0.0000000000        0.0000000000        0.0052916700
  H         0.6841700000        0.0000000000        0.0000000000
    2
                                        
  H         0.0000000000        0.0000000000       -0.0052916700
  H         0.6841700000        0.0000000000        0.0000000000
