           6
AU Step:          0 Time:        0.0000000000
C         -4.6519303176         0.5998128696         0.3398868982
N         -2.2608770381         0.2887926719         0.1639860874
H         -5.4359572810         1.6738523232         1.9355499129
H         -5.9049774807        -0.2096157926        -1.1054962128
H         -1.4584057807        -0.7055453144        -1.3031360550
H         -1.0294464523         1.0187814049         1.4814502350
           6
AU Step:          1 Time:        8.2681585435
C         -4.6523462579         0.5998669692         0.3399175154
N         -2.2605324294         0.2887478528         0.1639607169
H         -5.4359123744         1.6737618256         1.9354127003
H         -5.9048915097        -0.2095422898        -1.1053687498
H         -1.4583807147        -0.7055203766        -1.3030930427
H         -1.0294348163         1.0187516275         1.4814046924
           6
AU Step:          2 Time:       16.5363170871
C         -4.6535915863         0.6000287601         0.3400093020
N         -2.2595006358         0.2886136080         0.1638847753
H         -5.4357796166         1.6734933520         1.9350042735
H         -5.9046366496        -0.2093228222        -1.1049898805
H         -1.4583040668        -0.7054463329        -1.3029665990
H         -1.0293977984         1.0186641885         1.4812693789
           6
AU Step:          3 Time:       24.8044756306
C         -4.6556587531         0.6002974113         0.3401616336
N         -2.2577877564         0.2883907376         0.1637587042
H         -5.4355652874         1.6730532721         1.9343354725
H         -5.9042222394        -0.2089625390        -1.1043690358
H         -1.4581714944        -0.7053280654        -1.3027629533
H         -1.0293293329         1.0185215299         1.4810504211
           6
AU Step:          4 Time:       33.0726341742
C         -4.6585356626         0.6006713497         0.3403736221
N         -2.2554035420         0.2880805458         0.1635831974
H         -5.4352797406         1.6724537666         1.9334235458
H         -5.9036638000        -0.2084706965        -1.1035213350
H         -1.4579759401        -0.7051729362        -1.3024925128
H         -1.0292192329         1.0183287139         1.4807570363
           6
AU Step:          5 Time:       41.3407927177
C         -4.6622053214         0.6011483727         0.3406439862
N         -2.2523617014         0.2876848207         0.1633592895
H         -5.4349373423         1.6717112833         1.9322926661
H         -5.9029826205        -0.2078598660        -1.1024678408
H         -1.4577076839        -0.7049911086        -1.3021697988
H         -1.0290535559         1.0180934230         1.4804015254
           6
AU Step:          6 Time:       49.6089512612
C         -4.6666466555         0.6017258236         0.3409711704
N         -2.2486792211         0.2872057137         0.1630882298
H         -5.4345560924         1.6708465187         1.9309736009
H         -5.9022057346        -0.2071445357        -1.1012363217
H         -1.4573544354        -0.7047950093        -1.3018132829
H         -1.0288146312         1.0178236385         1.4800005395
           6
AU Step:          7 Time:       57.8771098048
C         -4.6718344453         0.6024002244         0.3413534185
N         -2.2443764085         0.2866459700         0.1627714589
H         -5.4341576836         1.6698837729         1.9295037922
H         -5.9013654681        -0.2063428047        -1.0998595224
H         -1.4569014081        -0.7045984341        -1.3014456959
H         -1.0284815432         1.0175302507         1.4795730186
           6
AU Step:          8 Time:       66.1452683483
C         -4.6777396809         0.6031679397         0.3417884800
N         -2.2394765898         0.2860085870         0.1624107397
H         -5.4337670042         1.6688529652         1.9279254101
H         -5.9004991907        -0.2054753558        -1.0983757161
H         -1.4563319046        -0.7044201458        -1.3010910799
H         -1.0280302724         1.0172244536         1.4791414253
           6
AU Step:          9 Time:       74.4134268919
C         -4.6843303825         0.6040248274         0.3422740060
N         -2.2340054438         0.2852968500         0.1620079854
H         -5.4334117031         1.6677869014         1.9262862937
H         -5.8996487652        -0.2045661671        -1.0968275859
H         -1.4556272912        -0.7042790869        -1.3007772541
H         -1.0274341710         1.0169200649         1.4787298281
           6
AU Step:         10 Time:       82.6815854354
C         -4.6915718602         0.6049661795         0.3428075696
N         -2.2279907753         0.2845145222         0.1615651481
H         -5.4331221937         1.6667212021         1.9246392992
H         -5.8988597947        -0.2036412411        -1.0952622005
H         -1.4547674113        -0.7041955333        -1.3005345269
H         -1.0266643615         1.0166315479         1.4783645401
           6
AU Step:         11 Time:       90.9497439789
C         -4.6994271258         0.6059873332         0.3433863263
N         -2.2214621723         0.2836653679         0.1610844794
H         -5.4329307847         1.6656944234         1.9230410591
H         -5.8981811111        -0.2027278440        -1.0937304972
H         -1.4537309922        -0.7041916153        -1.3003941542
H         -1.0256905681         1.0163729973         1.4780737263
           6
AU Step:         12 Time:       99.2179025225
C         -4.7078576431         0.6070832042         0.3440074785
N         -2.2144504090         0.2827534907         0.1605682074
H         -5.4328713151         1.6647466229         1.9215516935
H         -5.8976640163        -0.2018563977        -1.0922855709
H         -1.4524959371        -0.7042895743        -1.3003888880
H         -1.0244812993         1.0161605761         1.4778854896
           6
AU Step:         13 Time:      107.4860610660
C         -4.7168235673         0.6082487095         0.3446680084
N         -2.2069872358         0.2817829443         0.1600187227
H         -5.4329785516         1.6639192182         1.9202334390
H         -5.8973613011        -0.2010569662        -1.0909829484
H         -1.4510399085        -0.7045119603        -1.3005516189
H         -1.0230049128         1.0160097224         1.4778287512
           6
AU Step:         14 Time:      115.7542196095
C         -4.7262843348         0.6094785277         0.3453650032
N         -2.1991049682         0.2807579584         0.1594383551
H         -5.4332875177         1.6632550791         1.9191488755
H         -5.8973264925        -0.2003617779        -1.0898784750
H         -1.4493405898        -0.7048809227        -1.3009147395
H         -1.0212294708         1.0159365758         1.4779314999
           6
AU Step:         15 Time:      124.0223781531
C         -4.7361993798         0.6107674376         0.3460954226
N         -2.1908358101         0.2796826881         0.1588295247
H         -5.4338327098         1.6627971302         1.9183604825
H         -5.8976123303        -0.1998015122        -1.0890285829
H         -1.4473766904        -0.7054183962        -1.3015088688
H         -1.0191248969         1.0159552994         1.4782209072
           6
AU Step:         16 Time:      132.2905366966
C         -4.7465282251         0.6121101271         0.3468563505
N         -2.1822118974         0.2785613321         0.1581945744
H         -5.4346476118         1.6625869971         1.9179291950
H         -5.8982702837        -0.1994059354        -1.0884886644
H         -1.4451277625        -0.7061444627        -1.3023628678
H         -1.0166624437         1.0160790698         1.4787224824
           6
AU Step:         17 Time:      140.5586952402
C         -4.7572310758         0.6135014158         0.3476448427
N         -2.1732647997         0.2773979538         0.1575358551
H         -5.4357640286         1.6626642755         1.9179132522
H         -5.8993491674        -0.1992034285        -1.0883113000
H         -1.4425750131        -0.7070771835        -1.3035027426
H         -1.0138157819         1.0163199987         1.4794589863
           6
AU Step:         18 Time:      148.8268537837
C         -4.7682692030         0.6149362666         0.3484580537
N         -2.1640252467         0.2761965614         0.1568556244
H         -5.4372113558         1.6630651626         1.9183668633
H         -5.9008941509        -0.1992206389        -1.0885451750
H         -1.4397016129        -0.7082323950        -1.3049505517
H         -1.0105616464         1.0166886956         1.4804494903
           6
AU Step:         19 Time:      157.0950123272
C         -4.7796052817         0.6164098634         0.3492932077
N         -2.1545228764         0.2749610147         0.1561560677
H         -5.4390160733         1.6638208579         1.9193393776
H         -5.9029456425        -0.1994803083        -1.0892345475
H         -1.4364932397        -0.7096243099        -1.3067230531
H         -1.0068803765         1.0171946674         1.4817083667
           6
AU Step:         20 Time:      165.3631708708
C         -4.7903126392         0.6178017478         0.3500819859
N         -2.1453408298         0.2737671295         0.1554801264
H         -5.4428556047         1.6658996620         1.9221412781
H         -5.9075431646        -0.2004680245        -1.0914150766
H         -1.4325888802        -0.7114156242        -1.3090310899
H         -1.0023549332         1.0178997408         1.4833890084
           6
AU Step:         21 Time:      173.6313294143
C         -4.8003685570         0.6191089672         0.3508227166
N         -2.1364984625         0.2726174238         0.1548292273
H         -5.4487298140         1.6693149327         1.9267905536
H         -5.9146926008        -0.2021964307        -1.0951043371
H         -1.4279865868        -0.7136058238        -1.3118770482
H         -0.9969832569         1.0188028782         1.4854934781
           6
AU Step:         22 Time:      181.8994879579
C         -4.8097571910         0.6203294626         0.3515142351
N         -2.1280110221         0.2715138815         0.1542044948
H         -5.4566187519         1.6740503235         1.9332633286
H         -5.9243672936        -0.2046552665        -1.1002819039
H         -1.4226958497        -0.7161840602        -1.3152457616
H         -0.9907793777         1.0198962865         1.4880083166
           6
AU Step:         23 Time:      190.1676465014
C         -4.8184691097         0.6214620080         0.3521558494
N         -2.1198899119         0.2704579864         0.1536067694
H         -5.4664836727         1.6800616527         1.9414945367
H         -5.9365095873        -0.2078129049        -1.1068898345
H         -1.4167371897        -0.7191283301        -1.3191054790
H         -0.9837730951         1.0211645034         1.4909054607
           6
AU Step:         24 Time:      198.4358050449
C         -4.8265007362         0.6225061383         0.3527472987
N         -2.1121429960         0.2694507619         0.1530366306
H         -5.4782685469         1.6872790569         1.9513808792
H         -5.9510332510        -0.2116179892        -1.1148353354
H         -1.4101415191        -0.7224059742        -1.3234088313
H         -0.9760090973         1.0225846998         1.4941431005
           6
AU Step:         25 Time:      206.7039635885
C         -4.8338537180         0.6234620665         0.3532887068
N         -2.1047749389         0.2684928150         0.1524944216
H         -5.4919019022         1.6956100128         1.9627852938
H         -5.9678266502        -0.2160018008        -1.1239948544
H         -1.4029492307        -0.7259746276        -1.3280942882
H         -0.9675456423         1.0241273387         1.4976669708
           6
AU Step:         26 Time:      214.9721221320
C         -4.8405342550         0.6243305970         0.3537805327
N         -2.0977875684         0.2675843838         0.1519802759
H         -5.5072988721         1.7049430306         1.9755424950
H         -5.9867564500        -0.2208812080        -1.1342191992
H         -1.3952090791        -0.7297834797        -1.3330880359
H         -0.9584528941         1.0257570763         1.5014120279
           6
AU Step:         27 Time:      223.2402806756
C         -4.8465524107         0.6251130355         0.3542235193
N         -2.0911802525         0.2667253862         0.1514941457
H         -5.5243633505         1.7151517507         1.9894651562
H         -6.0076716192        -0.2261619617        -1.1453392655
H         -1.3869769075        -0.7337747695        -1.3383061900
H         -0.9488110084         1.0274338395         1.5053044212
           6
AU Step:         28 Time:      231.5084392191
C         -4.8519214330         0.6258111022         0.3546186450
N         -2.0849502756         0.2659154691         0.1510358287
H         -5.5429901758         1.7260991722         2.0043503022
H         -6.0304075156        -0.2317421177        -1.1571719797
H         -1.3783142948        -0.7378854123        -1.3436571978
H         -0.9387080807         1.0291140118         1.5092636494
           6
AU Step:         29 Time:      239.7765977626
C         -4.8566571053         0.6264268471         0.3549670753
N         -2.0790932054         0.2651540556         0.1506049959
H         -5.5630672562         1.7376417670         2.0199855350
H         -6.0547898555        -0.2375153605        -1.1695260712
H         -1.3692871866        -0.7420486800        -1.3490443271
H         -0.9282380478         1.0307516642         1.5132047946
           6
AU Step:         30 Time:      248.0447563062
C         -4.8607771479         0.6269625729         0.3552701196
N         -2.0736032412         0.2644403909         0.1502012168
H         -5.5844775690         1.7496332695         2.0361547616
H         -6.0806384058        -0.2433740588        -1.1822073908
H         -1.3599645574        -0.7461958615        -1.3543681247
H         -0.9174986427         1.0322997701         1.5170407223
           6
AU Step:         31 Time:      256.3129148497
C         -4.8643006849         0.6274207648         0.3555291914
N         -2.0684735345         0.2637735835         0.1498239834
H         -5.6071009586         1.7619279902         2.0526431864
H         -6.1077702520        -0.2492119107        -1.1950235201
H         -1.3504171617        -0.7502578284        -1.3595287432
H         -0.9065894560         1.0337113625         1.5206841813
           6
AU Step:         32 Time:      264.5810733933
C         -4.8672477858         0.6278040306         0.3557457739
N         -2.0636964803         0.2631526436         0.1494727320
H         -5.6308156961         1.7743835593         2.0692414217
H         -6.1360025828        -0.2549261223        -1.2077875642
H         -1.3407163869        -0.7541664735        -1.3644280895
H         -0.8956101716         1.0349405883         1.5240497281
           6
AU Step:         33 Time:      272.8492319368
C         -4.8696390780         0.6281150507         0.3559213921
N         -2.0592639743         0.2625765163         0.1491468619
H         -5.6554998045         1.7868631005         2.0857487094
H         -6.1651549841        -0.2604191083        -1.2203211035
H         -1.3309332338        -0.7578559732        -1.3689717323
H         -0.8846589938         1.0359436359         1.5270554467
           6
AU Step:         34 Time:      281.1173904803
C         -4.8714954262         0.6283565356         0.3560575878
N         -2.0551676383         0.2620441108         0.1488457521
H         -5.6810321671         1.7992368915         2.1019753049
H         -6.1950512894        -0.2655997688        -1.2324563524
H         -1.3211374249        -0.7612638523        -1.3730705776
H         -0.8738312807         1.0366795073         1.5296244586
           6
AU Step:         35 Time:      289.3855490239
C         -4.8728376684         0.6285311935         0.3561559008
N         -2.0513990121         0.2615543259         0.1485687758
H         -5.7072934554         1.8113836477         2.1177440810
H         -6.2255210383        -0.2703844718        -1.2440375866
H         -1.3113966300        -0.7643317573        -1.3766423538
H         -0.8632184030         1.0371105357         1.5316862561
           6
AU Step:         36 Time:      297.6537075674
C         -4.8736864108         0.6286417015         0.3562178514
N         -2.0479497146         0.2611060704         0.1483153118
H         -5.7341668255         1.8231921199         2.1328910626
H         -6.2564006037        -0.2746984004        -1.2549215204
H         -1.3017757470        -0.7670052259        -1.3796133674
H         -0.8529068514         1.0372019543         1.5331783508
           6
AU Step:         37 Time:      305.9218661109
C         -4.8748563299         0.6287939345         0.3563035115
N         -2.0443655351         0.2606403010         0.1480518918
H         -5.7599379761         1.8337519211         2.1461885775
H         -6.2856420816        -0.2781195924        -1.2641585325
H         -1.2924488768        -0.7692201182        -1.3819195272
H         -0.8430887165         1.0369369015         1.5340639590
           6
AU Step:         38 Time:      314.1900246545
C         -4.8761341703         0.6289601492         0.3563972500
N         -2.0411740371         0.2602255759         0.1478172896
H         -5.7337970525         1.8230467111         2.1327099572
H         -6.2559839882        -0.2746550328        -1.2547984571
H         -1.3019102871        -0.7669762145        -1.3795847138
H         -0.8530470683         1.0372085327         1.5331700844
           6
AU Step:         39 Time:      322.4581831980
C         -4.8769321120         0.6290639782         0.3564556255
N         -2.0383018423         0.2598523751         0.1476061947
H         -5.7081660726         1.8119114730         2.1184723780
H         -6.2265949448        -0.2706594862        -1.2446217856
H         -1.3115265936        -0.7643080835        -1.3766130401
H         -0.8633529436         1.0371213420         1.5316764385
           6
AU Step:         40 Time:      330.7263417416
C         -4.8772889700         0.6291104794         0.3564814477
N         -2.0354957540         0.2594878040         0.1474000070
H         -5.6482618449         1.7848703708         2.0835850905
H         -6.1574172427        -0.2603689061        -1.2192615516
H         -1.3345180291        -0.7573635734        -1.3686197046
H         -0.8882644216         1.0363830902         1.5272368006
           6
AU Step:         41 Time:      338.9945002851
C         -4.8778884005         0.6291884976         0.3565251911
N         -2.0326034736         0.2591120455         0.1471874562
H         -5.5876369020         1.7568846104         2.0472991262
H         -6.0871084665        -0.2493742052        -1.1926397298
H         -1.3575335810        -0.7501866832        -1.3602603965
H         -0.9133107467         1.0354328923         1.5224431466
           6
AU Step:         42 Time:      347.2626588286
C         -4.8786727251         0.6292905420         0.3565826031
N         -2.0296511345         0.2587284987         0.1469704747
H         -5.5265959999         1.7282465383         2.0100365367
H         -6.0160952814        -0.2378727633        -1.1651244247
H         -1.3804007565        -0.7429290105        -1.3517525688
H         -0.9382571458         1.0343694047         1.5174828072
           6
AU Step:         43 Time:      355.5308173722
C         -4.8795760105         0.6294080429         0.3566488176
N         -2.0266652858         0.2583406169         0.1467510250
H         -5.4654794089         1.6993243219         1.9723347898
H         -5.9448741268        -0.2261240079        -1.1371913403
H         -1.4029435250        -0.7357543750        -1.3433323035
H         -0.9628596854         1.0333018408         1.5125608119
           6
AU Step:         44 Time:      363.7989759157
C         -4.8805246273         0.6295314396         0.3567184089
N         -2.0236722939         0.2579518314         0.1465310583
H         -5.4046578670         1.6705713442         1.9348623754
H         -5.8740111842        -0.2144596404        -1.1094399088
H         -1.4249851209        -0.7288361266        -1.3352505491
H         -0.9868692124         1.0323481146         1.5078965939
           6
AU Step:         45 Time:      372.0671344593
C         -4.8814389445         0.6296503912         0.3567855113
N         -2.0206976084         0.2575654564         0.1463124602
H         -5.3445219300         1.6425315341         1.8984282616
H         -5.8041349028        -0.2032912445        -1.0826040172
H         -1.4463513283        -0.7223533932        -1.3277676712
H         -1.0100361923         1.0316321798         1.5037191300
           6
AU Step:         46 Time:      380.3352930028
C         -4.8822360166         0.6297541218         0.3568439947
N         -2.0177650095         0.2571845896         0.1460969950
H         -5.2854664066         1.6158383407         1.8639825760
H         -5.7359207274        -0.1931132024        -1.0575546862
H         -1.4668740775        -0.7164863082        -1.3211464194
H         -1.0321163955         1.0312804645         1.5002605963
           6
AU Step:         47 Time:      388.6034515463
C         -4.8828338651         0.6298319758         0.3568878074
N         -2.0148957719         0.2568120037         0.1458862402
H         -5.2278678924         1.5912016492         1.8325990429
H         -5.6700640566        -0.1844960340        -1.0352864965
H         -1.4863952476        -0.7114102073        -1.3156432672
H         -1.0528771947         1.0314173869         1.4977485149
           6
AU Step:         48 Time:      396.8716100899
C         -4.8831571560         0.6298741576         0.3569113823
N         -2.0121078527         0.2564500398         0.1456815269
H         -5.1720577225         1.5693788287         1.8054324624
H         -5.6072407393        -0.1780661239        -1.0168798276
H         -1.5047703052        -0.7072891229        -1.3114985480
H         -1.0721041191         1.0321601894         1.4963966412
           6
AU Step:         49 Time:      405.1397686334
C         -4.8831434946         0.6298725508         0.3569101043
N         -2.0094151561         0.2561005108         0.1454838843
H         -5.1182949927         1.5511287681         1.7836495673
H         -5.5480597026        -0.1744694344        -1.0034372451
H         -1.5218715088        -0.7042688750        -1.3089259693
H         -1.0896071862         1.0336132911         1.4963952095
           6
AU Step:         50 Time:      413.4079271770
C         -4.8827494016         0.6298214967         0.3568807617
N         -2.0068269457         0.2557646251         0.1452939979
H         -5.0667452402         1.5371499125         1.7683338093
H         -5.4930131534        -0.1743188004        -0.9959936623
H         -1.5375903924        -0.7024703256        -1.3081022709
H         -1.1052265105         1.0358625850         1.4979011687
           6
AU Step:         51 Time:      421.6760857205
C         -4.8819544813         0.6297183328         0.3568218472
N         -2.0043474687         0.2554429378         0.1451121809
H         -5.0174720667         1.5280097267         1.7603747466
H         -5.4424345416        -0.1781299120        -0.9954093611
H         -1.5518393333        -0.7019833382        -1.3091578816
H         -1.1188366830         1.0389701725         1.5010292774
           6
AU Step:         52 Time:      429.9442442640
C         -4.8807624476         0.6295635294         0.3567336330
N         -2.0019758494         0.2551353362         0.1449383668
H         -4.9704462918         1.5240789865         1.7603629103
H         -5.3964754125        -0.1862574535        -1.0022658763
H         -1.5645520619        -0.7028620332        -1.3121694915
H         -1.1303495244         1.0429700434         1.5058449103
           6
AU Step:         53 Time:      438.2124028076
C         -4.8791985119         0.6293603557         0.3566179885
N         -1.9997062833         0.2548410651         0.1447721225
H         -4.9255717018         1.5254865599         1.7685148911
H         -5.3551077882        -0.1988462964        -1.0167891177
H         -1.5756830850        -0.7051218356        -1.3171553126
H         -1.1397149467         1.0478651635         1.5123593420
           6
AU Step:         54 Time:      446.4805613511
C         -4.8773036961         0.6291141404         0.3564779569
N         -1.9975285284         0.2545587922         0.1446126865
H         -4.8827210262         1.5321068808         1.7846487200
H         -5.3181518021        -0.2158107052        -1.0388200133
H         -1.5852061076        -0.7087386485        -1.3240735695
H         -1.1469198789         1.0536262827         1.5205280121
           6
AU Step:         55 Time:      454.7487198947
C         -4.8751275919         0.6288313321         0.3563172166
N         -1.9954286411         0.2542867043         0.1444590213
H         -4.8417721465         1.5435829878         1.8082155415
H         -5.2853207369        -0.2368468344        -1.0678401260
H         -1.5931116887        -0.7136502234        -1.3328243466
H         -1.1519854076         1.0601926217         1.5302520065
           6
AU Step:         56 Time:      463.0168784382
C         -4.8727213867         0.6285185915         0.3561395585
N         -1.9933898709         0.2540226271         0.1443098767
H         -4.8026353890         1.5593779084         1.8383774607
H         -5.2562714307        -0.2614740054        -1.1030436574
H         -1.5994044559        -0.7197595798        -1.3432545849
H         -1.1549625402         1.0674743345         1.5413825633
           6
AU Step:         57 Time:      471.2850369817
C         -4.8701325340         0.6281820992         0.3559484859
N         -1.9913936094         0.2537641670         0.1441638493
H         -4.7652671508         1.5788406272         1.8741103737
H         -5.2306489400        -0.2890931423        -1.1434358763
H         -1.6041002410        -0.7269401445        -1.3551656083
H         -1.1559271101         1.0753564040         1.5537281342
           6
AU Step:         58 Time:      479.5531955253
C         -4.8674016047         0.6278272366         0.3557469316
N         -1.9894202608         0.2535093513         0.1440191201
H         -4.7296706100         1.6012705633         1.9143082578
H         -5.2081188154        -0.3190492479        -1.1879336347
H         -1.6072236938        -0.7350449251        -1.3683205716
H         -1.1549745957         1.0837007045         1.5670650775
           6
AU Step:         59 Time:      487.8213540688
C         -4.8645896727         0.6274618031         0.3555394235
N         -1.9874270402         0.2532521840         0.1438728879
H         -4.6949374169         1.6259394594         1.9579348156
H         -5.1874782360        -0.3508862338        -1.2356575418
H         -1.6097795425        -0.7440047917        -1.3827501645
H         -1.1530782245         1.0927006595         1.5815659624
           6
AU Step:         60 Time:      496.0895126123
C         -4.8617554216         0.6270934146         0.3553302921
N         -1.9854289389         0.2529945266         0.1437262756
H         -4.6678084070         1.6472728573         1.9952778237
H         -5.1723531988        -0.3776876115        -1.2761282592
H         -1.6113357555        -0.7518325534        -1.3952705563
H         -1.1507853818         1.1003937890         1.5940507540
           6
AU Step:         61 Time:      504.3576711559
C         -4.8588523152         0.6267160860         0.3551161435
N         -1.9834001297         0.2527327857         0.1435774274
H         -4.6426274767         1.6697511639         2.0341757541
H         -5.1596054644        -0.4050707357        -1.3178359720
H         -1.6114091855        -0.7600860930        -1.4082673547
H         -1.1468972012         1.1081128162         1.6067848865
           6
AU Step:         62 Time:      512.6258296994
C         -4.8558921263         0.6263313567         0.3548978387
N         -1.9813266756         0.2524651445         0.1434253094
H         -4.6194624303         1.6929401686         2.0739326231
H         -5.1490889345        -0.4326116527        -1.3600904225
H         -1.6100302117        -0.7686140010        -1.4215049901
H         -1.1415149909         1.1157234949         1.6195426226
           6
AU Step:         63 Time:      520.8939882430
C         -4.8528836337         0.6259403751         0.3546760164
N         -1.9791956665         0.2521899167         0.1432689679
H         -4.5983762550         1.7164571441         2.1139346078
H         -5.1406778821        -0.4599358537        -1.4022823576
H         -1.6072325109        -0.7772659909        -1.4347501468
H         -1.1347426088         1.1230935032         1.6321008593
           6
AU Step:         64 Time:      529.1621467865
C         -4.8498333564         0.6255439933         0.3544511460
N         -1.9769953433         0.2519055640         0.1431075356
H         -4.5794227228         1.7399715421         2.1536516986
H         -5.1342631605        -0.4867200165        -1.4438857562
H         -1.6030527033        -0.7858962334        -1.4477769602
H         -1.1266845406         1.1300954654         1.6442441775
           6
AU Step:         65 Time:      537.4303053300
C         -4.8467461812         0.6251428477         0.3542235768
N         -1.9747151419         0.2516107040         0.1429402333
H         -4.5626436781         1.7632026221         2.1926342371
H         -5.1297484775        -0.5126904701        -1.4844548689
H         -1.5975301438        -0.7943659855        -1.4603710890