           6
ANG Step:          0 Time:        0.0000000000
C         -2.4616955000         0.3174073000         0.1798604000
N         -1.1964046000         0.1528225000         0.0867777000
H         -2.8765847000         0.8857645000         1.0242489000
H         -3.1247795000        -0.1109239000        -0.5850034000
H         -0.7717551000        -0.3733585000        -0.6895899000
H         -0.5447596000         0.5391159000         0.7839497000
           6
ANG Step:          1 Time:        8.2681585435
C         -2.4619156061         0.3174359283         0.1798766020
N         -1.1962222409         0.1527987827         0.0867642745
H         -2.8765609364         0.8857166107         1.0241762902
H         -3.1247340061        -0.1108850040        -0.5849359495
H         -0.7717418357        -0.3733453035        -0.6895671389
H         -0.5447534425         0.5391001425         0.7839255999
           6
ANG Step:          2 Time:       16.5363170871
C         -2.4625746056         0.3175215443         0.1799251733
N         -1.1956762393         0.1527277434         0.0867240879
H         -2.8764906840         0.8855745406         1.0239601601
H         -3.1245991400        -0.1107688667        -0.5847354605
H         -0.7717012754        -0.3733061213        -0.6895002277
H         -0.5447338535         0.5390538717         0.7838539951
           6
ANG Step:          3 Time:       24.8044756306
C         -2.4636685031         0.3176637084         0.1800057837
N         -1.1947698225         0.1526098055         0.0866573740
H         -2.8763772659         0.8853416603         1.0236062458
H         -3.1243798435        -0.1105782131        -0.5844069236
H         -0.7716311211        -0.3732435368        -0.6893924631
H         -0.5446976231         0.5389783801         0.7837381276
           6
ANG Step:          4 Time:       33.0726341742
C         -2.4651908980         0.3178615881         0.1801179632
N         -1.1935081506         0.1524456591         0.0865644997
H         -2.8762261610         0.8850244157         1.0231236750
H         -3.1240843302        -0.1103179413        -0.5839583397
H         -0.7715276381        -0.3731614459        -0.6892493522
H         -0.5446393607         0.5388763463         0.7835828750
           6
ANG Step:          5 Time:       41.3407927177
C         -2.4671327978         0.3181140178         0.1802610337
N         -1.1918984779         0.1522362504         0.0864460128
H         -2.8760449717         0.8846315105         1.0225252392
H         -3.1237238655        -0.1099947036        -0.5834008546
H         -0.7713856831        -0.3730652269        -0.6890785792
H         -0.5445516882         0.5387518357         0.7833947468
           6
ANG Step:          6 Time:       49.6089512612
C         -2.4694830506         0.3184195917         0.1804341722
N         -1.1899497932         0.1519827179         0.0863025742
H         -2.8758432229         0.8841738968         1.0218272200
H         -3.1233127552        -0.1096161672        -0.5827491627
H         -0.7711987521        -0.3729614556        -0.6888899191
H         -0.5444252547         0.5386090719         0.7831825542
           6
ANG Step:          7 Time:       57.8771098048
C         -2.4722283108         0.3187764692         0.1806364491
N         -1.1876728429         0.1516865143         0.0861349462
H         -2.8756323940         0.8836644336         1.0210494307
H         -3.1228681053        -0.1091919094        -0.5820205919
H         -0.7709590204        -0.3728574325        -0.6886954005
H         -0.5442489921         0.5384538177         0.7829563199
           6
ANG Step:          8 Time:       66.1452683483
C         -2.4753532269         0.3191827267         0.1808666738
N         -1.1850799705         0.1513492257         0.0859440619
H         -2.8754256554         0.8831189537         1.0202141869
H         -3.1224096910        -0.1087328752        -0.5812353954
H         -0.7706576521        -0.3727630864        -0.6885077458
H         -0.5440101899         0.5382919968         0.7827279305
           6
ANG Step:          9 Time:       74.4134268919
C         -2.4788408759         0.3196361721         0.1811236031
N         -1.1821847647         0.1509725907         0.0857309335
H         -2.8752376381         0.8825548170         1.0193468038
H         -3.1219596652        -0.1082517533        -0.5804161602
H         -0.7702847867        -0.3726884413        -0.6883416763
H         -0.5436947466         0.5381309213         0.7825101227
           6
ANG Step:         10 Time:       82.6815854354
C         -2.4826729009         0.3201343142         0.1814059527
N         -1.1790019392         0.1505586007         0.0854965941
H         -2.8750844364         0.8819908732         1.0184752519
H         -3.1215421600        -0.1077623035        -0.5795877939
H         -0.7698297579        -0.3726442266        -0.6882132306
H         -0.5432873810         0.5379782447         0.7823168206
           6
ANG Step:         11 Time:       90.9497439789
C         -2.4868297284         0.3206746854         0.1817122176
N         -1.1755471513         0.1501092476         0.0852422352
H         -2.8749831471         0.8814475254         1.0176294996
H         -3.1211830161        -0.1072789546        -0.5787772515
H         -0.7692813085        -0.3726421533        -0.6881389486
H         -0.5427720717         0.5378414256         0.7821629286
           6
ANG Step:         12 Time:       99.2179025225
C         -2.4912909660         0.3212545954         0.1820409172
N         -1.1718366860         0.1496267029         0.0849690358
H         -2.8749516772         0.8809459709         1.0168413613
H         -3.1209093814        -0.1068178051        -0.5780126294
H         -0.7686277455        -0.3726939910        -0.6881361618
H         -0.5421321542         0.5377290171         0.7820633180
           6
ANG Step:         13 Time:      107.4860610660
C         -2.4960355288         0.3218713542         0.1823904546
N         -1.1678873448         0.1491131119         0.0846782610
H         -2.8750084243         0.8805081272         1.0161437711
H         -3.1207491913        -0.1063947642        -0.5773233112
H         -0.7678572483        -0.3728116726        -0.6882222753
H         -0.5413508842         0.5376491888         0.7820332933
           6
ANG Step:         14 Time:      115.7542196095
C         -2.5010419513         0.3225221460         0.1827592883
N         -1.1637162285         0.1485707127         0.0843711437
H         -2.8751719221         0.8801566799         1.0155698448
H         -3.1207307715        -0.1060268863        -0.5767388491
H         -0.7669580076        -0.3730069191        -0.6884144305
H         -0.5404113607         0.5376104813         0.7820876656
           6
ANG Step:         15 Time:      124.0223781531
C         -2.5062887671         0.3232042077         0.1831458097
N         -1.1593403785         0.1480017042         0.0840489645
H         -2.8754604253         0.8799143438         1.0151526452
H         -3.1208820303        -0.1057304065        -0.5762891055
H         -0.7659187568        -0.3732913378        -0.6887288302
H         -0.5392976681         0.5376203894         0.7822408134
           6
ANG Step:         16 Time:      132.2905366966
C         -2.5117545566         0.3239147284         0.1835484753
N         -1.1547768004         0.1474083082         0.0837129633
H         -2.8758916529         0.8798031462         1.0149244177
H         -3.1212302042        -0.1055210763        -0.5760033930
H         -0.7647286754        -0.3736755556        -0.6891807469
H         -0.5379945940         0.5376858859         0.7825062355
           6
ANG Step:         17 Time:      140.5586952402
C         -2.5174182613         0.3246509667         0.1839657275
N         -1.1500422003         0.1467926749         0.0833643841
H         -2.8764824352         0.8798440401         1.0149159811
H         -3.1218011249        -0.1054139142        -0.5759095358
H         -0.7633778186        -0.3741691302        -0.6897839427
H         -0.5364882055         0.5378133800         0.7828959766
           6
ANG Step:         18 Time:      148.8268537837
C         -2.5232593866         0.3254102570         0.1843960602
N         -1.1451528394         0.1461569254         0.0830044215
H         -2.8772483278         0.8800561804         1.0151560218
H         -3.1226186950        -0.1054230216        -0.5760332971
H         -0.7618572807        -0.3747804418        -0.6905500903
H         -0.5347661912         0.5380084860         0.7834201287
           6
ANG Step:         19 Time:      157.0950123272
C         -2.5292581811         0.3261900509         0.1848380046
N         -1.1401244016         0.1455031022         0.0826342320
H         -2.8782033431         0.8804560772         1.0156706542
H         -3.1237042976        -0.1055604327        -0.5763980974
H         -0.7601594828        -0.3755170115        -0.6914880576
H         -0.5328181470         0.5382762347         0.7840862974
           6
ANG Step:         20 Time:      165.3631708708
C         -2.5349242707         0.3269266043         0.1852554081
N         -1.1352654718         0.1448713254         0.0822765393
H         -2.8802351356         0.8815561330         1.0171533561
H         -3.1261372014        -0.1060831096        -0.5775519837
H         -0.7580933847        -0.3764649342        -0.6927094181
H         -0.5304233856         0.5386493435         0.7849756547
           6
ANG Step:         21 Time:      173.6313294143
C         -2.5402456332         0.3276183551         0.1856473859
N         -1.1305862925         0.1442629274         0.0819320983
H         -2.8833436334         0.8833634163         1.0196136467
H         -3.1299205202        -0.1069977428        -0.5795042562
H         -0.7556579559        -0.3776239379        -0.6942154344
H         -0.5275808169         0.5391272632         0.7860892921
           6
ANG Step:         22 Time:      181.8994879579
C         -2.5452138843         0.3282642134         0.1860133217
N         -1.1260949325         0.1436789579         0.0816015041
H         -2.8875182795         0.8858692772         1.0230388917
H         -3.1350401471        -0.1082989027        -0.5822441066
H         -0.7528582184        -0.3789882818        -0.6959980807
H         -0.5242978654         0.5397058699         0.7874200874
           6
ANG Step:         23 Time:      190.1676465014
C         -2.5498240332         0.3288635307         0.1863528494
N         -1.1217974261         0.1431202023         0.0812852015
H         -2.8927385707         0.8890503356         1.0273946594
H         -3.1414655722        -0.1099698529        -0.5857408728
H         -0.7497050314        -0.3805463224        -0.6980405552
H         -0.5205903003         0.5403769814         0.7889531900
           6
ANG Step:         24 Time:      198.4358050449
C         -2.5540741868         0.3294160606         0.1866658308
N         -1.1176979348         0.1425872020         0.0809834970
H         -2.8989748576         0.8928696214         1.0326262866
H         -3.1491511640        -0.1119834168        -0.5899454508
H         -0.7462147528        -0.3822807769        -0.7003177911
H         -0.5164817697         0.5411285170         0.7906664751
           6
ANG Step:         25 Time:      206.7039635885
C         -2.5579652172         0.3299219160         0.1869523317
N         -1.1137989269         0.1420802784         0.0806965724
H         -2.9061893185         0.8972781734         1.0386612428
H         -3.1580378481        -0.1143032300        -0.5947924595
H         -0.7424087577        -0.3841692269        -0.7027972282
H         -0.5120031022         0.5419448463         0.7925312270
           6
ANG Step:         26 Time:      214.9721221320
C         -2.5615004052         0.3303815225         0.1872125948
N         -1.1101013697         0.1415995573         0.0804244982
H         -2.9143370440         0.9022169937         1.0454120630
H         -3.1680550667        -0.1168853011        -0.6002029497
H         -0.7383128459        -0.3861847846        -0.7054398056
H         -0.5071914271         0.5428072663         0.7945130258
           6
ANG Step:         27 Time:      223.2402806756
C         -2.5646850760         0.3307955712         0.1874470132
N         -1.1066049287         0.1411449953         0.0801672491
H         -2.9233671771         0.9076192157         1.0527796179
H         -3.1791228976        -0.1196797556        -0.6060874354
H         -0.7339565683        -0.3882968843        -0.7082011339
H         -0.5020891609         0.5436945712         0.7965727917
           6
ANG Step:         28 Time:      231.5084392191
C         -2.5675262402         0.3311649722         0.1876561047
N         -1.1033081669         0.1407164057         0.0799247183
H         -2.9332240685         0.9134123417         1.0606564980
H         -3.1911542158        -0.1226326469        -0.6123490381
H         -0.7293725111        -0.3904721427        -0.7110327652
H         -0.4967429218         0.5445836801         0.7986679250
           6
ANG Step:         29 Time:      239.7765977626
C         -2.5700322501         0.3314908103         0.1878404860
N         -1.1002087389         0.1403134830         0.0796967313
H         -2.9438484018         0.9195204198         1.0689303068
H         -3.2040567943        -0.1256877154        -0.6188865417
H         -0.7245955712        -0.3926752491        -0.7138835113
H         -0.4912024190         0.5454502884         0.8007534892
           6
ANG Step:         30 Time:      248.0447563062
C         -2.5722124827         0.3317743042         0.1880008502
N         -1.0973035749         0.1399358279         0.0794830606
H         -2.9551782514         0.9258660496         1.0774866930
H         -3.2177352580        -0.1287880051        -0.6255972070
H         -0.7196622483        -0.3948698431        -0.7167007436
H         -0.4855193706         0.5462695108         0.8027833747
           6
ANG Step:         31 Time:      256.3129148497
C         -2.5740770582         0.3320167689         0.1881379451
N         -1.0945890511         0.1395829686         0.0792834373
H         -2.9671500336         0.9323721356         1.0862119916
H         -3.2320928127        -0.1318772633        -0.6323792106
H         -0.7146099840        -0.3970193434        -0.7194316253
H         -0.4797464777         0.5470164933         0.8047114102
           6
ANG Step:         32 Time:      264.5810733933
C         -2.5756365968         0.3322195845         0.1882525556
N         -1.0920611428         0.1392543814         0.0790975631
H         -2.9796993322         0.9389633389         1.0949953994
H         -3.2470327186        -0.1349010938        -0.6391336518
H         -0.7094765551        -0.3990877092        -0.7220242477
H         -0.4739364906         0.5476669715         0.8064923809
           6
ANG Step:         33 Time:      272.8492319368
C         -2.5769020141         0.3323841692         0.1883454888
N         -1.0897155617         0.1389495079         0.0789251201
H         -2.9927615997         0.9455672277         1.1037306799
H         -3.2624595050        -0.1378078568        -0.6457661151
H         -0.7042995335        -0.4010401084        -0.7244286399
H         -0.4681413769         0.5481977615         0.8080829386
           6
ANG Step:         34 Time:      281.1173904803
C         -2.5778843513         0.3325119575         0.1884175604
N         -1.0875478740         0.1386677711         0.0787657796
H         -3.0062727441         0.9521151558         1.1123174244
H         -3.2782799484        -0.1405493443        -0.6521878123
H         -0.6991158147        -0.4028434804        -0.7265976554
H         -0.4624115979         0.5485871679         0.8094424012
           6
ANG Step:         35 Time:      289.3855490239
C         -2.5785946353         0.3326043825         0.1884695854
N         -1.0855536029         0.1384085881         0.0786192100
H         -3.0201696193         0.9585429424         1.1206619013
H         -3.2944038451        -0.1430813001        -0.6583163375
H         -0.6939612080        -0.4044669457        -0.7284877580
H         -0.4567955049         0.5488152583         0.8105334575
           6
ANG Step:         36 Time:      297.6537075674
C         -2.5790437704         0.3326628608         0.1885023683
N         -1.0837283133         0.1381713815         0.0784850827
H         -3.0343903943         0.9647917167         1.1286773387
H         -3.3107446073        -0.1453641327        -0.6640758672
H         -0.6888700560        -0.4058816844        -0.7300599507
H         -0.4513388668         0.5488636349         0.8113230399
           6
ANG Step:         37 Time:      305.9218661109
C         -2.5796628650         0.3327434190         0.1885476976
N         -1.0818316472         0.1379249069         0.0783456868
H         -3.0480278999         0.9703797229         1.1357140805
H         -3.3262185310        -0.1471745496        -0.6689638835
H         -0.6839344889        -0.4070537550        -0.7312803179
H         -0.4461433336         0.5487233750         0.8117916836
           6
ANG Step:         38 Time:      314.1900246545
C         -2.5803390690         0.3328313761         0.1885973019
N         -1.0801427792         0.1377054439         0.0782215407
H         -3.0341947189         0.9647147697         1.1285815019
H         -3.3105241439        -0.1453411836        -0.6640107449
H         -0.6889412516        -0.4058663322        -0.7300447879
H         -0.4514130664         0.5488671161         0.8113186655
           6
ANG Step:         39 Time:      322.4581831980
C         -2.5807613215         0.3328863200         0.1886281929
N         -1.0786228792         0.1375079545         0.0781098341
H         -3.0206313885         0.9588222555         1.1210472995
H         -3.2949721319        -0.1432268314        -0.6586254823
H         -0.6940299818        -0.4044544181        -0.7284722459
H         -0.4568667007         0.5488209767         0.8105282622
           6
ANG Step:         40 Time:      330.7263417416
C         -2.5809501626         0.3329109274         0.1886418574
N         -1.0771379612         0.1373150318         0.0780007242
H         -2.9889314365         0.9445127205         1.1025857420
H         -3.2583648686        -0.1377812910        -0.6452054244
H         -0.7061965254        -0.4007795417        -0.7242423549
H         -0.4700492871         0.5484303107         0.8081789070
           6
ANG Step:         41 Time:      338.9945002851
C         -2.5812673676         0.3329522128         0.1886650054
N         -1.0756074323         0.1371161889         0.0778882472
H         -2.9568500984         0.9297032939         1.0833840368
H         -3.2211590667        -0.1319631458        -0.6311177631
H         -0.7183758310        -0.3969816950        -0.7198187996
H         -0.4833032315         0.5479274876         0.8056422145
           6
ANG Step:         42 Time:      347.2626588286
C         -2.5816824143         0.3330062124         0.1886953865
N         -1.0740451218         0.1369132247         0.0777734256
H         -2.9245486442         0.9145486789         1.0636655236
H         -3.1835805076        -0.1258768449        -0.6165572907
H         -0.7304766191        -0.3931410999        -0.7153166510
H         -0.4965042974         0.5473647143         0.8030173160
           6
ANG Step:         43 Time:      355.5308173722
C         -2.5821604123         0.3330683912         0.1887304258
N         -1.0724650787         0.1367079665         0.0776572978
H         -2.8922071372         0.8992437012         1.0437146185
H         -3.1458918958        -0.1196596713        -0.6017757391
H         -0.7424057384        -0.3893444464        -0.7108608386
H         -0.5095234006         0.5467997837         0.8004127083
           6
ANG Step:         44 Time:      363.7989759157
C         -2.5826623987         0.3331336899         0.1887672519
N         -1.0708812556         0.1365022301         0.0775408964
H         -2.8600217635         0.8840282807         1.0238850708
H         -3.1083928417        -0.1134871539        -0.5870903140
H         -0.7540696485        -0.3856834670        -0.7065841583
H         -0.5222286951         0.5462950936         0.7979445104
           6
ANG Step:         45 Time:      372.0671344593
C         -2.5831462345         0.3331966364         0.1888027609
N         -1.0693071198         0.1362977693         0.0774252192
H         -2.8281991962         0.8691902522         1.0046049682
H         -3.0714159062        -0.1075770933        -0.5728893718
H         -0.7653761586        -0.3822529522        -0.7026243899
H         -0.5344881328         0.5459162372         0.7957338917
           6
ANG Step:         46 Time:      380.3352930028
C         -2.5835680269         0.3332515283         0.1888337090
N         -1.0677552553         0.1360962232         0.0773112000
H         -2.7969483591         0.8550648227         0.9863770964
H         -3.0353185192        -0.1021911054        -0.5596338368
H         -0.7762363297        -0.3791482245        -0.6991205743
H         -0.5461724731         0.5457301175         0.7939037145
           6
ANG Step:         47 Time:      388.6034515463
C         -2.5838843948         0.3332927268         0.1888568937
N         -1.0662369202         0.1358990592         0.0771996733
H         -2.7664685382         0.8420276470         0.9697696460
H         -3.0004686700        -0.0976310963        -0.5478500183
H         -0.7865664880        -0.3764620676        -0.6962084317
H         -0.5571586149         0.5458025737         0.7925743783
           6
ANG Step:         48 Time:      396.8716100899
C         -2.5840554729         0.3333150485         0.1888693690
N         -1.0647616169         0.1357075162         0.0770913437
H         -2.7369350682         0.8304795078         0.9553937108
H         -2.9672240023        -0.0942285344        -0.5381096286
H         -0.7962901497        -0.3742812837        -0.6940151407
H         -0.5673330650         0.5461956478         0.7918589975
           6
ANG Step:         49 Time:      405.1397686334
C         -2.5840482436         0.3333141982         0.1888686927
N         -1.0633367032         0.1355225534         0.0769867558
H         -2.7084850570         0.8208219917         0.9438666991
H         -2.9359067465        -0.0923252483        -0.5309961204
H         -0.8053397169        -0.3726830374        -0.6926537907
H         -0.5765952893         0.5469645961         0.7918582399
           6
ANG Step:         50 Time:      413.4079271770
C         -2.5838396986         0.3332871815         0.1888531653
N         -1.0619670812         0.1353448104         0.0768862722
H         -2.6812061029         0.8134246999         0.9357619491
H         -2.9067773673        -0.0922455362        -0.5270571460
H         -0.8136577918        -0.3717312860        -0.6922179083
H         -0.5848606797         0.5481548712         0.7926551592
           6
ANG Step:         51 Time:      421.6760857205
C         -2.5834190449         0.3332325895         0.1888219890
N         -1.0606549985         0.1351745808         0.0767900588
H         -2.6551318625         0.8085879219         0.9315501945
H         -2.8800123187        -0.0942622896        -0.5267479471
H         -0.8211980066        -0.3714735834        -0.6927765134
H         -0.5920628728         0.5497993357         0.7943104830
           6
ANG Step:         52 Time:      429.9442442640
C         -2.5827882478         0.3331506711         0.1887753081
N         -1.0593999916         0.1350118050         0.0766980803
H         -2.6302468941         0.8065078638         0.9315439310
H         -2.8556917950        -0.0985631993        -0.5303762587
H         -0.8279252928        -0.3719385688        -0.6943701887
H         -0.5981552061         0.5519159762         0.7968588062
           6
ANG Step:         53 Time:      438.2124028076
C         -2.5819606487         0.3330431562         0.1887141117
N         -1.0581989890         0.1348560835         0.0766101077
H         -2.6065002839         0.8072527195         0.9358577734
H         -2.8338009911        -0.1052249281        -0.5380616270
H         -0.8338155765        -0.3731344047        -0.6970085716
H         -0.6031111741         0.5545063622         0.8003060950
           6
ANG Step:         54 Time:      446.4805613511
C         -2.5809579554         0.3329128647         0.1886400101
N         -1.0570465708         0.1347067111         0.0765257378
H         -2.5838246830         0.8107560424         0.9443954280
H         -2.8142447255        -0.1142021065        -0.5497198749
H         -0.8388549431        -0.3750483396        -0.7006695555
H         -0.6069238600         0.5575550152         0.8046287690
           6
ANG Step:         55 Time:      454.7487198947
C         -2.5798064106         0.3327632090         0.1885549501
N         -1.0559353582         0.1345627283         0.0764444216
H         -2.5621554691         0.8168289367         0.9568664528
H         -2.7968712741        -0.1253339467        -0.5650766571
H         -0.8430383964        -0.3776474331        -0.7053002673
H         -0.6096044223         0.5610297721         0.8097744852
           6
ANG Step:         56 Time:      463.0168784382
C         -2.5785331016         0.3325977138         0.1884609374
N         -1.0548564875         0.1344229848         0.0763654977
H         -2.5414451890         0.8251872487         0.9728274530
H         -2.7814990433        -0.1383660843        -0.5837055636
H         -0.8463683854        -0.3808803653        -0.7108197116
H         -0.6111798530         0.5648830886         0.8156645222
           6
ANG Step:         57 Time:      471.2850369817
C         -2.5771631398         0.3324196498         0.1883598262
N         -1.0538001114         0.1342862135         0.0762882233
H         -2.5216707691         0.8354864759         0.9917364961
H         -2.7679402052        -0.1529815021        -0.6050802052
H         -0.8488532878        -0.3846801565        -0.7171227538
H         -0.6116902814         0.5690541001         0.8221975170
           6
ANG Step:         58 Time:      479.5531955253
C         -2.5757179942         0.3322318645         0.1882531682
N         -1.0527558603         0.1341513709         0.0762116360
H         -2.5028338909         0.8473558869         1.0130083003
H         -2.7560177767        -0.1688335904        -0.6286274048
H         -0.8505061479        -0.3889690216        -0.7240840606
H         -0.6111862325         0.5734697137         0.8292551234
           6
ANG Step:         59 Time:      487.8213540688
C         -2.5742299840         0.3320384855         0.1881433597
N         -1.0517010934         0.1340152838         0.0761342532
H         -2.4844538768         0.8604101045         1.0360944803
H         -2.7450952525        -0.1856809977        -0.6538818088
H         -0.8518586448        -0.3937103788        -0.7317198722
H         -0.6101827161         0.5782322848         0.8369286612
           6
ANG Step:         60 Time:      496.0895126123
C         -2.5727301628         0.3318435426         0.1880326921
N         -1.0506437437         0.1338789374         0.0760566693
H         -2.4700978230         0.8716992524         1.0558555491
H         -2.7370914276        -0.1998636760        -0.6752979900
H         -0.8526821572        -0.3978526519        -0.7383453782
H         -0.6089693960         0.5823033136         0.8435353284
           6
ANG Step:         61 Time:      504.3576711559
C         -2.5711939051         0.3316438690         0.1879193695
N         -1.0495701441         0.1337404301         0.0759779023
H         -2.4567726486         0.8835942599         1.0764394473
H         -2.7303456171        -0.2143542012        -0.6973687611
H         -0.8527210147        -0.4022202370        -0.7452229877
H         -0.6069118594         0.5863880469         0.8502739410
           6
ANG Step:         62 Time:      512.6258296994
C         -2.5696274406         0.3314402790         0.1878038476
N         -1.0484729195         0.1335988004         0.0758974049
H         -2.4445142341         0.8958653527         1.0974778763
H         -2.7247805091        -0.2289282268        -0.7197288532
H         -0.8519912932        -0.4067330115        -0.7522280427
H         -0.6040637164         0.5904154446         0.8570250442
           6
ANG Step:         63 Time:      520.8939882430
C         -2.5680354149         0.3312333805         0.1876864643
N         -1.0473452380         0.1334531562         0.0758146725
H         -2.4333559107         0.9083100002         1.1186460149
H         -2.7203295719        -0.2433875712        -0.7420558636
H         -0.8505108137        -0.4113114474        -0.7592370777
H         -0.6004799262         0.5943154850         0.8636705768
           6
ANG Step:         64 Time:      529.1621467865
C         -2.5664212777         0.3310236242         0.1875674680
N         -1.0461808772         0.1333026832         0.0757292462
H         -2.4233261334         0.9207532837         1.1396633941
H         -2.7169350475        -0.2575611397        -0.7640714340
H         -0.8482989548        -0.4158783750        -0.7661305704
H         -0.5962157802         0.5980207638         0.8700965441
           6
ANG Step:         65 Time:      537.4303053300
C         -2.5647876149         0.3308113471         0.1874470436
N         -1.0449742466         0.1331466500         0.0756407137
H         -2.4144470454         0.9330466417         1.1602920651
H         -2.7145459801        -0.2713041118        -0.7855396838