           6
AU Step:          0 Time:        0.0000000000
C          0.0000000000         0.0000000000         0.0000000000
N          0.0000000000         0.0000000000         0.0000000000
H          0.0000000000         0.0000000000         0.0000000000
H          0.0000000000         0.0000000000         0.0000000000
H          0.0000000000         0.0000000000         0.0000000000
H          0.0000000000         0.0000000000         0.0000000000
           6
AU Step:          1 Time:        8.2681585435
C         -0.0001004618         0.0000130555         0.0000074021
N          0.0000832351        -0.0000108285        -0.0000061266
H          0.0000107439        -0.0000217080        -0.0000329964
H          0.0000206111         0.0000177168         0.0000306194
H          0.0000061509         0.0000059857         0.0000102475
H          0.0000029422        -0.0000070884        -0.0000109369
           6
AU Step:          2 Time:       16.5363170871
C         -0.0002003164         0.0000260301         0.0000147625
N          0.0001659785        -0.0000215958        -0.0000122163
H          0.0000209894        -0.0000428483        -0.0000651431
H          0.0000404728         0.0000350592         0.0000604557
H          0.0000126522         0.0000116296         0.0000199615
H          0.0000063789        -0.0000139147        -0.0000214238
           6
AU Step:          3 Time:       24.8044756306
C         -0.0002989829         0.0000388593         0.0000220315
N          0.0002477634        -0.0000322358        -0.0000182373
H          0.0000302290        -0.0000628668        -0.0000955913
H          0.0000588311         0.0000515306         0.0000888073
H          0.0000198428         0.0000165331         0.0000286694
H          0.0000107984        -0.0000202871        -0.0000309829
           6
AU Step:          4 Time:       33.0726341742
C         -0.0003958903         0.0000514602         0.0000291693
N          0.0003281296        -0.0000426889        -0.0000241538
H          0.0000379737        -0.0000811540        -0.0001235345
H          0.0000749634         0.0000666819         0.0001149709
H          0.0000280480         0.0000203768         0.0000358698
H          0.0000166771        -0.0000258889        -0.0000392406
           6
AU Step:          5 Time:       41.3407927177
C         -0.0004904957         0.0000637672         0.0000361355
N          0.0004066396        -0.0000529037        -0.0000299322
H          0.0000437611        -0.0000971950        -0.0001481554
H          0.0000881735         0.0000801969         0.0001381815
H          0.0000375842         0.0000228544         0.0000410750
H          0.0000244675        -0.0000305434        -0.0000457476
           6
AU Step:          6 Time:       49.6089512612
C         -0.0005823016         0.0000757032         0.0000429015
N          0.0004828943        -0.0000628224        -0.0000355479
H          0.0000471483        -0.0001105150        -0.0001686515
H          0.0000977940         0.0000917412         0.0001577327
H          0.0000487579         0.0000237462         0.0000437886
H          0.0000345913        -0.0000340567        -0.0000501023
           6
AU Step:          7 Time:       57.8771098048
C         -0.0006708281         0.0000872090         0.0000494251
N          0.0005565103        -0.0000723938        -0.0000409698
H          0.0000477185        -0.0001205561        -0.0001843331
H          0.0001031998         0.0001009402         0.0001729893
H          0.0000618355         0.0000226691         0.0000436738
H          0.0000474325        -0.0000362345        -0.0000519532
           6
AU Step:          8 Time:       66.1452683483
C         -0.0007556663         0.0000982445         0.0000556707
N          0.0006271629        -0.0000815853        -0.0000461695
H          0.0000451116        -0.0001268040        -0.0001945717
H          0.0001038141         0.0001074385         0.0001833502
H          0.0000770496         0.0000193119         0.0000404226
H          0.0000633377        -0.0000368997        -0.0000509902
           6
AU Step:          9 Time:       74.4134268919
C         -0.0008364728         0.0001087449         0.0000616274
N          0.0006945812        -0.0000903505        -0.0000511354
H          0.0000389936        -0.0001289140        -0.0001987208
H          0.0000991391         0.0001109143         0.0001882835
H          0.0000946095         0.0000135830         0.0000336564
H          0.0000826007        -0.0000358548        -0.0000469805
           6
AU Step:         10 Time:       82.6815854354
C         -0.0009129447         0.0001186785         0.0000672653
N          0.0007585287        -0.0000986605        -0.0000558471
H          0.0000290826        -0.0001265383        -0.0001962489
H          0.0000887534         0.0001111688         0.0001872901
H          0.0001146748         0.0000052897         0.0000231672
H          0.0001054408        -0.0000330828        -0.0000396764
           6
AU Step:         11 Time:       90.9497439789
C         -0.0009848495         0.0001280227         0.0000725620
N          0.0008188260        -0.0001064948        -0.0000602879
H          0.0000151714        -0.0001194086        -0.0001867166
H          0.0000723123         0.0001079348         0.0001800056
H          0.0001373628        -0.0000056869         0.0000088072
H          0.0001320162        -0.0000284811        -0.0000289696
           6
AU Step:         12 Time:       99.2179025225
C         -0.0010520143         0.0001367521         0.0000775071
N          0.0008753422        -0.0001138357        -0.0000644495
H         -0.0000028886        -0.0001073519        -0.0001697851
H          0.0000495763         0.0001010429         0.0001661524
H          0.0001627378        -0.0000193722        -0.0000095224
H          0.0001624095        -0.0000219683        -0.0000148144
           6
AU Step:         13 Time:      107.4860610660
C         -0.0011143165         0.0001448523         0.0000820935
N          0.0009279842        -0.0001206757        -0.0000683255
H         -0.0000251690        -0.0000901981        -0.0001453055
H          0.0000204111         0.0000903841         0.0001455642
H          0.0001908132        -0.0000357606        -0.0000317998
H          0.0001966477        -0.0000135460         0.0000027824
           6
AU Step:         14 Time:      115.7542196095
C         -0.0011717127         0.0001523149         0.0000863200
N          0.0009767245        -0.0001270087        -0.0000719143
H         -0.0000516535        -0.0000678560        -0.0001132632
H         -0.0000151805         0.0000759210         0.0001181863
H          0.0002215256        -0.0000548149        -0.0000578877
H          0.0002346360        -0.0000032911         0.0000237148
           6
AU Step:         15 Time:      124.0223781531
C         -0.0012242079         0.0001591406         0.0000901862
N          0.0010215740        -0.0001328365        -0.0000752151
H         -0.0000822489        -0.0000404009        -0.0000737577
H         -0.0000570738         0.0000578026         0.0000840460
H          0.0002547621        -0.0000764100        -0.0000875726
H          0.0002761816         0.0000086170         0.0000478330
           6
AU Step:         16 Time:      132.2905366966
C         -0.0012718489         0.0001653318         0.0000936980
N          0.0010625710        -0.0001381646        -0.0000782320
H         -0.0001167926        -0.0000080341        -0.0000270453
H         -0.0001050317         0.0000361679         0.0000433762
H          0.0002903716        -0.0001003118        -0.0001205754
H          0.0003210579         0.0000220544         0.0000748703
           6
AU Step:         17 Time:      140.5586952402
C         -0.0013147412         0.0001709050         0.0000968597
N          0.0010998006        -0.0001430047        -0.0000809703
H         -0.0001550372         0.0000289161         0.0000264671
H         -0.0001586730         0.0000112054        -0.0000034174
H          0.0003281353        -0.0001262634        -0.0001564849
H          0.0003689333         0.0000368659         0.0001044373
           6
AU Step:         18 Time:      148.8268537837
C         -0.0013530344         0.0001758824         0.0000996815
N          0.0011333795        -0.0001473689        -0.0000834398
H         -0.0001966608         0.0000699420         0.0000862420
H         -0.0002174895        -0.0000167437        -0.0000558315
H          0.0003677828        -0.0001540323        -0.0001947417
H          0.0004194045         0.0000528938         0.0001360267
           6
AU Step:         19 Time:      157.0950123272
C         -0.0013330318         0.0001732841         0.0000982040
N          0.0011299019        -0.0001469149        -0.0000831804
H         -0.0003413244         0.0001714106         0.0002282500
H         -0.0004020855        -0.0000754331        -0.0001735514
H          0.0004301280        -0.0001924993        -0.0002467622
H          0.0004962842         0.0000732355         0.0001777614
           6
AU Step:         20 Time:      165.3631708708
C         -0.0012556167         0.0001632228         0.0000924939
N          0.0010899896        -0.0001417239        -0.0000802380
H         -0.0005874186         0.0003322430         0.0004505946
H         -0.0007103733        -0.0001642520        -0.0003549635
H          0.0005144225        -0.0002407739        -0.0003116773
H          0.0005985081         0.0000972533         0.0002288969
           6
AU Step:         21 Time:      173.6313294143
C         -0.0011758696         0.0001528584         0.0000866123
N          0.0010479847        -0.0001362606        -0.0000771412
H         -0.0008322982         0.0004928946         0.0006725833
H         -0.0010174048        -0.0002532149        -0.0005362033
H          0.0005982608        -0.0002883614        -0.0003758196
H          0.0007000081         0.0001207370         0.0002793432
           6
AU Step:         22 Time:      181.8994879579
C         -0.0010945940         0.0001422953         0.0000806185
N          0.0010043682        -0.0001305876        -0.0000739256
H         -0.0010736283         0.0006498859         0.0008891933
H         -0.0013193377        -0.0003396448        -0.0007127039
H          0.0006802843        -0.0003339623        -0.0004371246
H          0.0007988576         0.0001428145         0.0003272786
           6
AU Step:         23 Time:      190.1676465014
C         -0.0010125317         0.0001316300         0.0000745670
N          0.0009595865        -0.0001247629        -0.0000706242
H         -0.0013092271         0.0007999806         0.0010956219
H         -0.0016125693        -0.0004210564        -0.0008800890
H          0.0007591975        -0.0003762575        -0.0004936450
H          0.0008932025         0.0001625763         0.0003709885
           6
AU Step:         24 Time:      198.4358050449
C         -0.0009303528         0.0001209495         0.0000685072
N          0.0009140471        -0.0001188397        -0.0000672670
H         -0.0015371155         0.0009402553         0.0012875150
H         -0.0018938354        -0.0004952068        -0.0010343911
H          0.0008337987        -0.0004140159        -0.0005435799
H          0.0009813221         0.0001791714         0.0004088885
           6
AU Step:         25 Time:      206.7039635885
C         -0.0008486484         0.0001103304         0.0000624827
N          0.0008681152        -0.0001128654        -0.0000638809
H         -0.0017555496         0.0010681927         0.0014611244
H         -0.0021602875        -0.0005601742        -0.0011721996
H          0.0009030088        -0.0004461396        -0.0005853301
H          0.0010616755         0.0001918430         0.0004395735
           6
AU Step:         26 Time:      214.9721221320
C         -0.0007679275         0.0000998390         0.0000565309
N          0.0008221109        -0.0001068816        -0.0000604896
H         -0.0019630398         0.0011817467         0.0016134102
H         -0.0024095431        -0.0006144150        -0.0012907597
H          0.0009658936        -0.0004716976        -0.0006175439
H          0.0011329387         0.0001999539         0.0004618592
           6
AU Step:         27 Time:      223.2402806756
C         -0.0006886163         0.0000895305         0.0000506831
N          0.0007763091        -0.0001009242        -0.0000571135
H         -0.0021583587         0.0012793745         0.0017420933
H         -0.0026397090        -0.0006567913        -0.0013880225
H          0.0010216776        -0.0004899478        -0.0006391485
H          0.0011940273         0.0002030038         0.0004748108
           6
AU Step:         28 Time:      231.5084392191
C         -0.0006110608         0.0000794501         0.0000449650
N          0.0007309395        -0.0000950230        -0.0000537695
H         -0.0023405396         0.0013600378         0.0018456576
H         -0.0028493791        -0.0006865736        -0.0014626477
H          0.0010697497        -0.0005003478        -0.0006493669
H          0.0012441078         0.0002006387         0.0004777589
           6
AU Step:         29 Time:      239.7765977626
C         -0.0005355313         0.0000696328         0.0000393966
N          0.0006861887        -0.0000892023        -0.0000504715
H         -0.0025088654         0.0014231765         0.0019233097
H         -0.0030376105        -0.0007034179        -0.0015139653
H          0.0011096629        -0.0005025574        -0.0006477214
H          0.0012825974         0.0001926522         0.0004703026
           6
AU Step:         30 Time:      248.0447563062
C         -0.0004622299         0.0000601051         0.0000339928
N          0.0006422029        -0.0000834812        -0.0000472301
H         -0.0026628482         0.0014686597         0.0019749048
H         -0.0032038813        -0.0007073250        -0.0015419061
H          0.0011411262        -0.0004964315        -0.0006340237
H          0.0013091544         0.0001789817         0.0004523006
           6
AU Step:         31 Time:      256.3129148497
C         -0.0003912986         0.0000508854         0.0000287642
N          0.0005990911        -0.0000778739        -0.0000440536
H         -0.0028022036         0.0014967232         0.0020008482
H         -0.0033480355        -0.0006985874        -0.0015469087
H          0.0011639938        -0.0004820065        -0.0006083558
H          0.0013236606         0.0001596981         0.0004238553
           6
AU Step:         32 Time:      264.5810733933
C         -0.0003228284         0.0000419855         0.0000237175
N          0.0005569293        -0.0000723902        -0.0000409475
H         -0.0029268213         0.0015078999         0.0020019889
H         -0.0034702245        -0.0006777324        -0.0015298197
H          0.0011782507        -0.0004594823        -0.0005710455
H          0.0013261999         0.0001349922         0.0003852893
           6
AU Step:         33 Time:      272.8492319368
C         -0.0002568674         0.0000334116         0.0000188563
N          0.0005157643        -0.0000670363        -0.0000379153
H         -0.0030367385         0.0015029545         0.0019795147
H         -0.0035708499        -0.0006454670        -0.0014917946
H          0.0011839977        -0.0004291995        -0.0005226368
H          0.0013170339         0.0001051576         0.0003371204
           6
AU Step:         34 Time:      281.1173904803
C         -0.0001934282         0.0000251654         0.0000141814
N          0.0004756175        -0.0000618149        -0.0000349586
H         -0.0031321152         0.0014828300         0.0019348547
H         -0.0036505138        -0.0006026350        -0.0014342059
H          0.0011814362        -0.0003916098        -0.0004638652
H          0.0012965759         0.0000705659         0.0002800387
           6
AU Step:         35 Time:      289.3855490239
C         -0.0001324953         0.0000172448         0.0000096916
N          0.0004364892        -0.0000567261        -0.0000320773
H         -0.0032132099         0.0014486435         0.0018695673
H         -0.0037099745        -0.0005502212        -0.0013585351
H          0.0011708579        -0.0003471978        -0.0003956619
H          0.0012653621         0.0000315939         0.0002149144
           6
AU Step:         36 Time:      297.6537075674
C         -0.0001220744         0.0000158887         0.0000089265
N          0.0004253352        -0.0000552738        -0.0000312575
H         -0.0031835699         0.0013526757         0.0017201228
H         -0.0036356973        -0.0004677656        -0.0012167731
H          0.0011458267        -0.0002956136        -0.0003191263
H          0.0012173017        -0.0000105002         0.0001437867
           6
AU Step:         37 Time:      305.9218661109
C         -0.0001343550         0.0000174793         0.0000098470
N          0.0003777229        -0.0000490848        -0.0000277632
H          0.0030891629        -0.0012147769        -0.0015129935
H          0.0034804957         0.0003623022         0.0010280975
H         -0.0011239767         0.0002423676         0.0002393780
H         -0.0011714023         0.0000549575        -0.0000690594
           6
AU Step:         38 Time:      314.1900246545
C         -0.0001255287         0.0000163303         0.0000091988
N          0.0003666894        -0.0000476482        -0.0000269526
H          0.0031308001        -0.0013207565        -0.0016760806
H          0.0035707550         0.0004511347         0.0011814449
H         -0.0011536860         0.0002970453         0.0003208990
H         -0.0012254377         0.0000111537        -0.0001443804
           6
AU Step:         39 Time:      322.4581831980
C         -0.0000736524         0.0000095880         0.0000053701
N          0.0003596081        -0.0000467234        -0.0000264267
H          0.0072830389        -0.0032505886        -0.0041828193
H          0.0083926311         0.0012164162         0.0030258495
H         -0.0027764409         0.0008184845         0.0009336341
H         -0.0029986407        -0.0000702837        -0.0005051994
           6
AU Step:         40 Time:      330.7263417416
C         -0.0000578296         0.0000075301         0.0000042068
N          0.0003445972        -0.0000447699        -0.0000253224
H          0.0072887554        -0.0033276371        -0.0043040570
H          0.0084351599         0.0012871839         0.0031435087
H         -0.0027821786         0.0008539628         0.0009888927
H         -0.0030210961        -0.0001021055        -0.0005583645
           6
AU Step:         41 Time:      338.9945002851
C         -0.0000836798         0.0000108889         0.0000061172
N          0.0003534414        -0.0000459174        -0.0000259751
H          0.0073574935        -0.0034242106        -0.0044476986
H          0.0085461570         0.0013604083         0.0032738322
H         -0.0027746642         0.0008729007         0.0010200056
H         -0.0030232079        -0.0001217735        -0.0005898528
           6
AU Step:         42 Time:      347.2626588286
C         -0.0001020548         0.0000132766         0.0000074761
N          0.0003590998        -0.0000466506        -0.0000263923
H          0.0073872249        -0.0034808409        -0.0045333151
H          0.0086013312         0.0014060082         0.0033531281
H         -0.0027460736         0.0008727644         0.0010236918
H         -0.0029963709        -0.0001288710        -0.0005976140
           6
AU Step:         43 Time:      355.5308173722
C         -0.0001119900         0.0000145678         0.0000082126
N          0.0003615582        -0.0000469674        -0.0000265728
H          0.0073739595        -0.0034877896        -0.0045460039
H          0.0085922456         0.0014158608         0.0033674074
H         -0.0026961484         0.0008522384         0.0009979259
H         -0.0029397154        -0.0001222334        -0.0005797067
           6
AU Step:         44 Time:      363.7989759157
C         -0.0001126571         0.0000146555         0.0000082663
N          0.0003608831        -0.0000468762        -0.0000265213
H          0.0073146565        -0.0034344278        -0.0044693463
H          0.0085109171         0.0013807647         0.0033010569
H         -0.0026249982         0.0008103970         0.0009412393
H         -0.0028529029        -0.0001009693        -0.0005346827
           6
AU Step:         45 Time:      372.0671344593
C         -0.0001034928         0.0000134662         0.0000075945
N          0.0003572310        -0.0000463974        -0.0000262491
H          0.0072078601        -0.0033098666        -0.0042863111
H          0.0083507383         0.0012908822         0.0031376529
H         -0.0025331491         0.0007468300         0.0008529184
H         -0.0027362310        -0.0000645640        -0.0004617714
           6
AU Step:         46 Time:      380.3352930028
C         -0.0000843550         0.0000109810         0.0000061862
N          0.0003508542        -0.0000455635        -0.0000257748
H          0.0070544147        -0.0031040699        -0.0039808875
H          0.0081076606         0.0011366020         0.0028614304
H         -0.0024215742         0.0006617668         0.0007331986
H         -0.0025907221        -0.0000129892        -0.0003610608
           6
AU Step:         47 Time:      388.6034515463
C         -0.0000557040         0.0000072589         0.0000040751
N          0.0003421050        -0.0000444204        -0.0000251246
H          0.0068581585        -0.0028095441        -0.0035406985
H          0.0077816594         0.0009099413         0.0024597290
H         -0.0022916970         0.0005561810         0.0005834353
H         -0.0024181759         0.0000531996        -0.0002336648
           6
AU Step:         48 Time:      396.8716100899
C         -0.0000187242         0.0000024537         0.0000013484
N          0.0003314290        -0.0000430261        -0.0000243316
H          0.0066261973        -0.0024233256        -0.0029601196
H          0.0073779641         0.0006063381         0.0019260184
H         -0.0021453544         0.0004318575         0.0004062149
H         -0.0022211712         0.0001327928        -0.0000818384
           6
AU Step:         49 Time:      405.1397686334
C          0.0000246581        -0.0000031846        -0.0000018517
N          0.0003193521        -0.0000414491        -0.0000234350
H          0.0063685573        -0.0019489779        -0.0022434653
H          0.0069076799         0.0002266117         0.0012630482
H         -0.0019847277         0.0002914069         0.0002053829
H         -0.0020030090         0.0002238948         0.0000909832
           6
AU Step:         50 Time:      413.4079271770
C          0.0000719032        -0.0000093260        -0.0000053372
N          0.0003064580        -0.0000397654        -0.0000224780
H          0.0060970605        -0.0013980768        -0.0014074972
H          0.0063874659        -0.0002213599         0.0004854699
H         -0.0018122430         0.0001382132        -0.0000140244
H         -0.0017675941         0.0003239465         0.0002802358
           6
AU Step:         51 Time:      421.6760857205
C          0.0001201570        -0.0000156000        -0.0000088973
N          0.0002933601        -0.0000380550        -0.0000215061
H          0.0058234822        -0.0007904375        -0.0004820238
H          0.0058379227        -0.0007219657        -0.0003792993
H         -0.0016304519        -0.0000236877        -0.0002459569
H         -0.0015192630         0.0004298090         0.0004803815
           6
AU Step:         52 Time:      429.9442442640
C          0.0001666616        -0.0000216479        -0.0000123279
N          0.0002806662        -0.0000363970        -0.0000205643
H          0.0055574869        -0.0001525834         0.0004922586
H          0.0052809070        -0.0012527810        -0.0012928971
H         -0.0014419022        -0.0001897942        -0.0004836283
H         -0.0012625704         0.0005379064         0.0006851625
           6
AU Step:         53 Time:      438.2124028076
C          0.0002091609        -0.0000271759        -0.0000154615
N          0.0002689427        -0.0000348653        -0.0000196948
H          0.0053050063         0.0004854705         0.0014686347
H          0.0047364604        -0.0017871725        -0.0022105368
H         -0.0012490112        -0.0003553763        -0.0007198748
H         -0.0010020583         0.0006444143         0.0008879306
           6
AU Step:         54 Time:      446.4805613511
C          0.0002461806        -0.0000319916        -0.0000181886
N          0.0002586817        -0.0000335238        -0.0000189342
H          0.0050676069         0.0010943445         0.0024008157
H          0.0042202294        -0.0022980049        -0.0030872055
H         -0.0010539592        -0.0005157368        -0.0009475528
H         -0.0007420311         0.0007454779         0.0010820223
           6
AU Step:         55 Time:      454.7487198947
C          0.0002771058        -0.0000360146        -0.0000204639
N          0.0002502769        -0.0000324235        -0.0000183118
H          0.0048430153         0.0016491597         0.0032491359
H          0.0037420891        -0.0027613948        -0.0038837937
H         -0.0008586161        -0.0006664683        -0.0011599327
H         -0.0004863635         0.0008374326         0.0012611364
           6
AU Step:         56 Time:      463.0168784382
C          0.0003020659        -0.0000392610        -0.0000222982
N          0.0002440103        -0.0000315994        -0.0000178499
H          0.0046264834         0.0021321337         0.0039848554
H          0.0033061652        -0.0031594888        -0.0045714986
H         -0.0006645103        -0.0008036808        -0.0013510422
H         -0.0002383664         0.0009169988         0.0014196709
           6
AU Step:         57 Time:      471.2850369817
C          0.0003217030        -0.0000418083        -0.0000237433
N          0.0002400541        -0.0000310393        -0.0000175829
H          0.0044123960         0.0025333727         0.0045917599
H          0.0029119311        -0.0034817452        -0.0051335480
H         -0.0004728524        -0.0009243500        -0.0015158144
H         -0.0000007290         0.0009812566         0.0015530976
           6
AU Step:         58 Time:      479.5531955253
C          0.0003351932        -0.0000435584        -0.0000247372
N          0.0002398702        -0.0000309611        -0.0000175953
H          0.0042530470         0.0028482057         0.0050691119
H          0.0026106602        -0.0037368110        -0.0055769169
H         -0.0003434442        -0.0010319497        -0.0016681197
H          0.0001722805         0.0010488584         0.0016834358
           6
AU Step:         59 Time:      487.8213540688
C          0.0003386500        -0.0000440136        -0.0000249894
N          0.0002396769        -0.0000309150        -0.0000175852
H          0.0033408216         0.0024843192         0.0043727004
H          0.0019314952        -0.0031667206        -0.0047628842
H         -0.0002220688        -0.0009066032        -0.0014554136
H          0.0002262353         0.0009014974         0.0014573411
           6
AU Step:         60 Time:      496.0895126123
C          0.0003469550        -0.0000450957        -0.0000255970
N          0.0002435192        -0.0000314096        -0.0000178674
H          0.0031633368         0.0026494233         0.0046105150
H          0.0016855489        -0.0032766971        -0.0049695727
H         -0.0000985493        -0.0009724839        -0.0015431000
H          0.0003737848         0.0009320187         0.0015250629
           6
AU Step:         61 Time:      504.3576711559
C          0.0003545708        -0.0000460839        -0.0000261517
N          0.0002480760        -0.0000320133        -0.0000182003
H          0.0029236242         0.0027616374         0.0047564883
H          0.0014068589        -0.0033214192        -0.0050774403
H          0.0000789501        -0.0010148238        -0.0015864738
H          0.0005606080         0.0009270327         0.0015415687
           6
AU Step:         62 Time:      512.6258296994
C          0.0003609438        -0.0000469095        -0.0000266158
N          0.0002542563        -0.0000328289        -0.0000186535
H          0.0026760022         0.0028244488         0.0048232538
H          0.0011446069        -0.0033178559        -0.0051067227
H          0.0002525759        -0.0010389192        -0.0016014928
H          0.0007350241         0.0009059264         0.0015309317
           6
AU Step:         63 Time:      520.8939882430
C          0.0003663917        -0.0000476142        -0.0000270128
N          0.0002619285        -0.0000338395        -0.0000192167
H          0.0024213195         0.0028441263         0.0048208483
H          0.0008965584        -0.0032720928        -0.0050673517
H          0.0004219506        -0.0010451077        -0.0015887437
H          0.0008968412         0.0008691156         0.0014937761
           6
AU Step:         64 Time:      529.1621467865
C          0.0003711499        -0.0000482288        -0.0000273604
N          0.0002709506        -0.0000350267        -0.0000198795
H          0.0021608546         0.0028268373         0.0047591993
H          0.0006609334        -0.0031902277        -0.0049692148
H          0.0005867308        -0.0010340872        -0.0015493741
H          0.0010460705         0.0008173421         0.0014312713
           6
AU Step:         65 Time:      537.4303053300
C          0.0003753859        -0.0000487753        -0.0000276708
N          0.0002811792        -0.0000363721        -0.0000206311
H          0.0018961200         0.0027783232         0.0046475889
H          0.0004363792        -0.0030780194        -0.0048216062
H          0.0007465924        -0.0010068313        -0.0014849606