 Entering Gaussian System, Link 0=g09
 Input=gaussian.gjf
 Output=gaussian.log
 Initial command:
 /opt/g09_D01_em64t/g09/l1.exe "/tmp/Gau-17028.inp" -scrdir="/tmp/"
 Entering Link 1 = /opt/g09_D01_em64t/g09/l1.exe PID=     17029.
  
 Copyright (c) 1988,1990,1992,1993,1995,1998,2003,2009,2013,
            Gaussian, Inc.  All Rights Reserved.
  
 This is part of the Gaussian(R) 09 program.  It is based on
 the Gaussian(R) 03 system (copyright 2003, Gaussian, Inc.),
 the Gaussian(R) 98 system (copyright 1998, Gaussian, Inc.),
 the Gaussian(R) 94 system (copyright 1995, Gaussian, Inc.),
 the Gaussian 92(TM) system (copyright 1992, Gaussian, Inc.),
 the Gaussian 90(TM) system (copyright 1990, Gaussian, Inc.),
 the Gaussian 88(TM) system (copyright 1988, Gaussian, Inc.),
 the Gaussian 86(TM) system (copyright 1986, Carnegie Mellon
 University), and the Gaussian 82(TM) system (copyright 1983,
 Carnegie Mellon University). Gaussian is a federally registered
 trademark of Gaussian, Inc.
  
 This software contains proprietary and confidential information,
 including trade secrets, belonging to Gaussian, Inc.
  
 This software is provided under written license and may be
 used, copied, transmitted, or stored only in accord with that
 written license.
  
 The following legend is applicable only to US Government
 contracts under FAR:
  
                    RESTRICTED RIGHTS LEGEND
  
 Use, reproduction and disclosure by the US Government is
 subject to restrictions as set forth in subparagraphs (a)
 and (c) of the Commercial Computer Software - Restricted
 Rights clause in FAR 52.227-19.
  
 Gaussian, Inc.
 340 Quinnipiac St., Bldg. 40, Wallingford CT 06492
  
  
 ---------------------------------------------------------------
 Warning -- This program may not be used in any manner that
 competes with the business of Gaussian, Inc. or will provide
 assistance to any competitor of Gaussian, Inc.  The licensee
 of this program is prohibited from giving any competitor of
 Gaussian, Inc. access to this program.  By using this program,
 the user acknowledges that Gaussian, Inc. is engaged in the
 business of creating and licensing software in the field of
 computational chemistry and represents and warrants to the
 licensee that it is not a competitor of Gaussian, Inc. and that
 it will not use this program in any manner prohibited above.
 ---------------------------------------------------------------
  

 Cite this work as:
 Gaussian 09, Revision D.01,
 M. J. Frisch, G. W. Trucks, H. B. Schlegel, G. E. Scuseria, 
 M. A. Robb, J. R. Cheeseman, G. Scalmani, V. Barone, B. Mennucci, 
 G. A. Petersson, H. Nakatsuji, M. Caricato, X. Li, H. P. Hratchian, 
 A. F. Izmaylov, J. Bloino, G. Zheng, J. L. Sonnenberg, M. Hada, 
 M. Ehara, K. Toyota, R. Fukuda, J. Hasegawa, M. Ishida, T. Nakajima, 
 Y. Honda, O. Kitao, H. Nakai, T. Vreven, J. A. Montgomery, Jr., 
 J. E. Peralta, F. Ogliaro, M. Bearpark, J. J. Heyd, E. Brothers, 
 K. N. Kudin, V. N. Staroverov, T. Keith, R. Kobayashi, J. Normand, 
 K. Raghavachari, A. Rendell, J. C. Burant, S. S. Iyengar, J. Tomasi, 
 M. Cossi, N. Rega, J. M. Millam, M. Klene, J. E. Knox, J. B. Cross, 
 V. Bakken, C. Adamo, J. Jaramillo, R. Gomperts, R. E. Stratmann, 
 O. Yazyev, A. J. Austin, R. Cammi, C. Pomelli, J. W. Ochterski, 
 R. L. Martin, K. Morokuma, V. G. Zakrzewski, G. A. Voth, 
 P. Salvador, J. J. Dannenberg, S. Dapprich, A. D. Daniels, 
 O. Farkas, J. B. Foresman, J. V. Ortiz, J. Cioslowski, 
 and D. J. Fox, Gaussian, Inc., Wallingford CT, 2013.
 
 ******************************************
 Gaussian 09:  EM64L-G09RevD.01 24-Apr-2013
                29-Apr-2014 
 ******************************************
 %chk=gaussian.chk
 %mem=1GB
 %nproc=2
 Will use up to    2 processors via shared memory.
 %nproclinda=1
 Will use up to    1 processors via Linda.
 --------------------------------------------------------
 #HF/6-31g* nosymm iop(2/12=3,3/33=1) guess=only pop=full
 --------------------------------------------------------
 1/38=1/1;
 2/12=3,15=1,17=6,18=5,40=1/2;
 3/5=1,6=6,7=1,11=9,16=1,25=1,30=1,33=1,89=1/1,2;
 4//1;
 6/7=3,28=1/1;
 99/5=2/99;
 -------
 [0] [0]
 -------
 Symbolic Z-matrix:
 Charge =  2 Multiplicity = 1
 c                    -2.76467  -0.30351   1.07672 
 n                    -2.43086  -1.70264   1.56766 
 h                    -2.68898   0.29574   1.96047 
 h                    -3.12108   0.4338    0.17176 
 h                    -2.6496   -2.73272   0.91025 
 h                    -1.95428  -2.39264   2.22226 
 c                    -2.76794  -0.29739   1.07044 
 n                    -2.42754  -1.70641   1.56659 
 h                    -2.69973   0.31153   1.95994 
 h                    -3.10711   0.46769   0.18048 
 h                    -2.64873  -2.72667   0.92865 
 h                    -1.92517  -2.40377   2.22474 
 
                          Input orientation:                          
 ---------------------------------------------------------------------
 Center     Atomic      Atomic             Coordinates (Angstroms)
 Number     Number       Type             X           Y           Z
 ---------------------------------------------------------------------
      1          6           0       -2.764675   -0.303508    1.076722
      2          7           0       -2.430858   -1.702641    1.567662
      3          1           0       -2.688980    0.295742    1.960471
      4          1           0       -3.121084    0.433796    0.171765
      5          1           0       -2.649603   -2.732721    0.910253
      6          1           0       -1.954279   -2.392638    2.222261
      7          6           0       -2.767941   -0.297394    1.070443
      8          7           0       -2.427536   -1.706412    1.566587
      9          1           0       -2.699725    0.311525    1.959943
     10          1           0       -3.107106    0.467694    0.180481
     11          1           0       -2.648726   -2.726668    0.928649
     12          1           0       -1.925171   -2.403768    2.224739
 ---------------------------------------------------------------------
                    Distance matrix (angstroms):
                    1          2          3          4          5
     1  C    0.000000
     2  N    1.519878   0.000000
     3  H    1.070440   2.052915   0.000000
     4  H    1.220488   2.643729   1.845330   0.000000
     5  H    2.437628   1.241410   3.205634   3.285497   0.000000
     6  H    2.516638   1.063825   2.799233   3.681670   1.523318
     7  C    0.009353   1.528258   1.072471   1.211186   2.443457
     8  N    1.523736   0.005139   2.057211   2.647079   1.238304
     9  H    1.078222   2.069551   0.019101   1.841215   3.220527
    10  H    1.230958   2.663069   1.836507   0.037688   3.314292
    11  H    2.430447   1.226554   3.193937   3.283980   0.019386
    12  H    2.536494   1.085840   2.817906   3.700902   1.536517
                    6          7          8          9         10
     6  H    0.000000
     7  C    2.525624   0.000000
     8  N    1.060559   1.532112   0.000000
     9  H    2.817268   1.080114   2.073858   0.000000
    10  H    3.698563   1.221648   2.666428   1.832166   0.000000
    11  H    1.505744   2.436327   1.223442   3.208860   3.312674
    12  H    0.031261   2.545480   1.082515   2.835995   3.717694
                   11         12
    11  H    0.000000
    12  H    1.519093   0.000000
 Symmetry turned off by external request.
 Stoichiometry    C2H8N2(2+)
 Framework group  C1[X(C2H8N2)]
 Deg. of freedom    30
 Full point group                 C1      NOp   1
 Rotational constants (GHZ):     92.0321786     10.2745524      9.2872950
 Standard basis: 6-31G(d) (6D, 7F)
                         Coordinates in L301:                         
 ---------------------------------------------------------------------
 Center     Atomic      Atomic             Coordinates (Angstroms)
 Number     Number       Type             X           Y           Z
 ---------------------------------------------------------------------
      1          6           0       -2.764675   -0.303508    1.076722
      2          7           0       -2.430858   -1.702641    1.567662
      3          1           0       -2.688980    0.295742    1.960471
      4          1           0       -3.121084    0.433796    0.171765
      5          1           0       -2.649603   -2.732721    0.910253
      6          1           0       -1.954279   -2.392638    2.222261
      7          6           0       -2.767941   -0.297394    1.070443
      8          7           0       -2.427536   -1.706412    1.566587
      9          1           0       -2.699725    0.311525    1.959943
     10          1           0       -3.107106    0.467694    0.180481
     11          1           0       -2.648726   -2.726668    0.928649
     12          1           0       -1.925171   -2.403768    2.224739
 ---------------------------------------------------------------------
 FixB: optimizing general contractions.
 Ernie: Thresh=  0.10000D-02 Tol=  0.10000D-05 Strict=F.
 IA=     1 ShT= 0 ShC= 0 NL=   1 NS=   0.
 IA=     1 L=0 SC=0 ISt=    0 NBk=    0 NP=    0 IndPr=    0.
 IA=     1 ShT= 1 ShC= 0 NL=   2 NS=   1.
 IA=     1 L=1 SC=0 ISt=    0 NBk=    0 NP=    0 IndPr=    0.
 IA=     1 ShT= 2 ShC= 2 NL=   1 NS=   1.
 IA=     1 L=2 SC=2 ISt=    0 NBk=    0 NP=    0 IndPr=    0.
 IA=     2 ShT= 0 ShC= 0 NL=   1 NS=   0.
 IA=     2 L=0 SC=0 ISt=    0 NBk=    0 NP=    0 IndPr=    0.
 IA=     2 ShT= 1 ShC= 0 NL=   2 NS=   1.
 IA=     2 L=1 SC=0 ISt=    0 NBk=    0 NP=    0 IndPr=    0.
 IA=     2 ShT= 2 ShC= 2 NL=   1 NS=   1.
 IA=     2 L=2 SC=2 ISt=    0 NBk=    0 NP=    0 IndPr=    0.
 IA=     3 ShT= 0 ShC= 0 NL=   2 NS=   1.
 IA=     3 L=0 SC=0 ISt=    0 NBk=    0 NP=    0 IndPr=    0.
 IA=     4 ShT= 0 ShC= 0 NL=   2 NS=   1.
 IA=     4 L=0 SC=0 ISt=    0 NBk=    0 NP=    0 IndPr=    0.
 IA=     5 ShT= 0 ShC= 0 NL=   2 NS=   1.
 IA=     5 L=0 SC=0 ISt=    0 NBk=    0 NP=    0 IndPr=    0.
 IA=     6 ShT= 0 ShC= 0 NL=   2 NS=   1.
 IA=     6 L=0 SC=0 ISt=    0 NBk=    0 NP=    0 IndPr=    0.
 IA=     7 ShT= 0 ShC= 0 NL=   1 NS=   0.
 IA=     7 L=0 SC=0 ISt=    0 NBk=    0 NP=    0 IndPr=    0.
 IA=     7 ShT= 1 ShC= 0 NL=   2 NS=   1.
 IA=     7 L=1 SC=0 ISt=    0 NBk=    0 NP=    0 IndPr=    0.
 IA=     7 ShT= 2 ShC= 2 NL=   1 NS=   1.
 IA=     7 L=2 SC=2 ISt=    0 NBk=    0 NP=    0 IndPr=    0.
 IA=     8 ShT= 0 ShC= 0 NL=   1 NS=   0.
 IA=     8 L=0 SC=0 ISt=    0 NBk=    0 NP=    0 IndPr=    0.
 IA=     8 ShT= 1 ShC= 0 NL=   2 NS=   1.
 IA=     8 L=1 SC=0 ISt=    0 NBk=    0 NP=    0 IndPr=    0.
 IA=     8 ShT= 2 ShC= 2 NL=   1 NS=   1.
 IA=     8 L=2 SC=2 ISt=    0 NBk=    0 NP=    0 IndPr=    0.
 IA=     9 ShT= 0 ShC= 0 NL=   2 NS=   1.
 IA=     9 L=0 SC=0 ISt=    0 NBk=    0 NP=    0 IndPr=    0.
 IA=    10 ShT= 0 ShC= 0 NL=   2 NS=   1.
 IA=    10 L=0 SC=0 ISt=    0 NBk=    0 NP=    0 IndPr=    0.
 IA=    11 ShT= 0 ShC= 0 NL=   2 NS=   1.
 IA=    11 L=0 SC=0 ISt=    0 NBk=    0 NP=    0 IndPr=    0.
 IA=    12 ShT= 0 ShC= 0 NL=   2 NS=   1.
 IA=    12 L=0 SC=0 ISt=    0 NBk=    0 NP=    0 IndPr=    0.
 LdAtmC:  AtmChg=     6.000000     7.000000     1.000000     1.000000     1.000000
 LdAtmC:  AtmChg=     1.000000     6.000000     7.000000     1.000000     1.000000
 LdAtmC:  AtmChg=     1.000000     1.000000
 AtZEff=     -3.6000000     -4.5500000     -1.0000000     -1.0000000     -1.0000000
 AtZEff=     -1.0000000     -3.6000000     -4.5500000     -1.0000000     -1.0000000
 AtZEff=     -1.0000000     -1.0000000
    76 basis functions,   144 primitive gaussians,    76 cartesian basis functions
    16 alpha electrons       16 beta electrons
       nuclear repulsion energy      7302.6095877451 Hartrees.
 IS=     1 IAt=     1 ISR=     1 T=0 IP=      1 IndIP=      1 IndIPD=      0 C=  5.363452D-01  0.000000D+00                             NZ=T
 IS=     1 IAt=     1 ISR=     1 T=0 IP=      2 IndIP=      2 IndIPD=      1 C=  9.894521D-01  0.000000D+00                             NZ=T
 IS=     1 IAt=     1 ISR=     1 T=0 IP=      3 IndIP=      3 IndIPD=      2 C=  1.597283D+00  0.000000D+00                             NZ=T
 IS=     1 IAt=     1 ISR=     1 T=0 IP=      4 IndIP=      4 IndIPD=      3 C=  2.079187D+00  0.000000D+00                             NZ=T
 IS=     1 IAt=     1 ISR=     1 T=0 IP=      5 IndIP=      5 IndIPD=      4 C=  1.774174D+00  0.000000D+00                             NZ=T
 IS=     1 IAt=     1 ISR=     1 T=0 IP=      6 IndIP=      6 IndIPD=      5 C=  6.125797D-01  0.000000D+00                             NZ=T
 IS=     2 IAt=     1 ISR=     2 T=1 IP=      1 IndIP=      7 IndIPD=      0 C= -3.995564D-01  1.296082D+00                             NZ=T
 IS=     2 IAt=     1 ISR=     2 T=1 IP=      2 IndIP=      8 IndIPD=      1 C= -1.841552D-01  9.937536D-01                             NZ=T
 IS=     2 IAt=     1 ISR=     2 T=1 IP=      3 IndIP=      9 IndIPD=      2 C=  5.163903D-01  4.959527D-01                             NZ=T
 IS=     3 IAt=     1 ISR=     3 T=1 IP=      1 IndIP=     10 IndIPD=      0 C=  1.876179D-01  1.541276D-01                             NZ=T
 IS=     4 IAt=     1 ISR=     4 T=2 IP=      1 IndIP=     11 IndIPD=      1 C=  0.000000D+00  0.000000D+00  1.113825D+00  0.000000D+00 NZ=T
 IS=     5 IAt=     2 ISR=     1 T=0 IP=      1 IndIP=     12 IndIPD=      0 C=  6.789979D-01  0.000000D+00                             NZ=T
 IS=     5 IAt=     2 ISR=     1 T=0 IP=      2 IndIP=     13 IndIPD=      1 C=  1.250431D+00  0.000000D+00                             NZ=T
 IS=     5 IAt=     2 ISR=     1 T=0 IP=      3 IndIP=     14 IndIPD=      2 C=  2.020356D+00  0.000000D+00                             NZ=T
 IS=     5 IAt=     2 ISR=     1 T=0 IP=      4 IndIP=     15 IndIPD=      3 C=  2.644212D+00  0.000000D+00                             NZ=T
 IS=     5 IAt=     2 ISR=     1 T=0 IP=      5 IndIP=     16 IndIPD=      4 C=  2.265005D+00  0.000000D+00                             NZ=T
 IS=     5 IAt=     2 ISR=     1 T=0 IP=      6 IndIP=     17 IndIPD=      5 C=  7.791879D-01  0.000000D+00                             NZ=T
 IS=     6 IAt=     2 ISR=     2 T=1 IP=      1 IndIP=     18 IndIPD=      0 C= -5.158747D-01  2.068052D+00                             NZ=T
 IS=     6 IAt=     2 ISR=     2 T=1 IP=      2 IndIP=     19 IndIPD=      1 C= -2.550231D-01  1.610011D+00                             NZ=T
 IS=     6 IAt=     2 ISR=     2 T=1 IP=      3 IndIP=     20 IndIPD=      2 C=  6.727345D-01  7.644904D-01                             NZ=T
 IS=     7 IAt=     2 ISR=     3 T=1 IP=      1 IndIP=     21 IndIPD=      0 C=  2.226950D-01  2.050881D-01                             NZ=T
 IS=     8 IAt=     2 ISR=     4 T=2 IP=      1 IndIP=     22 IndIPD=      2 C=  0.000000D+00  0.000000D+00  1.113825D+00  0.000000D+00 NZ=T
 IS=     9 IAt=     3 ISR=     1 T=0 IP=      1 IndIP=     23 IndIPD=      0 C=  2.149354D-01  0.000000D+00                             NZ=T
 IS=     9 IAt=     3 ISR=     1 T=0 IP=      2 IndIP=     24 IndIPD=      1 C=  3.645712D-01  0.000000D+00                             NZ=T
 IS=     9 IAt=     3 ISR=     1 T=0 IP=      3 IndIP=     25 IndIPD=      2 C=  4.150514D-01  0.000000D+00                             NZ=T
 IS=    10 IAt=     3 ISR=     2 T=0 IP=      1 IndIP=     26 IndIPD=      0 C=  1.813806D-01  0.000000D+00                             NZ=T
 IS=    11 IAt=     4 ISR=     1 T=0 IP=      1 IndIP=     27 IndIPD=      0 C=  2.149354D-01  0.000000D+00                             NZ=T
 IS=    11 IAt=     4 ISR=     1 T=0 IP=      2 IndIP=     28 IndIPD=      1 C=  3.645712D-01  0.000000D+00                             NZ=T
 IS=    11 IAt=     4 ISR=     1 T=0 IP=      3 IndIP=     29 IndIPD=      2 C=  4.150514D-01  0.000000D+00                             NZ=T
 IS=    12 IAt=     4 ISR=     2 T=0 IP=      1 IndIP=     30 IndIPD=      0 C=  1.813806D-01  0.000000D+00                             NZ=T
 IS=    13 IAt=     5 ISR=     1 T=0 IP=      1 IndIP=     31 IndIPD=      0 C=  2.149354D-01  0.000000D+00                             NZ=T
 IS=    13 IAt=     5 ISR=     1 T=0 IP=      2 IndIP=     32 IndIPD=      1 C=  3.645712D-01  0.000000D+00                             NZ=T
 IS=    13 IAt=     5 ISR=     1 T=0 IP=      3 IndIP=     33 IndIPD=      2 C=  4.150514D-01  0.000000D+00                             NZ=T
 IS=    14 IAt=     5 ISR=     2 T=0 IP=      1 IndIP=     34 IndIPD=      0 C=  1.813806D-01  0.000000D+00                             NZ=T
 IS=    15 IAt=     6 ISR=     1 T=0 IP=      1 IndIP=     35 IndIPD=      0 C=  2.149354D-01  0.000000D+00                             NZ=T
 IS=    15 IAt=     6 ISR=     1 T=0 IP=      2 IndIP=     36 IndIPD=      1 C=  3.645712D-01  0.000000D+00                             NZ=T
 IS=    15 IAt=     6 ISR=     1 T=0 IP=      3 IndIP=     37 IndIPD=      2 C=  4.150514D-01  0.000000D+00                             NZ=T
 IS=    16 IAt=     6 ISR=     2 T=0 IP=      1 IndIP=     38 IndIPD=      0 C=  1.813806D-01  0.000000D+00                             NZ=T
 IS=    17 IAt=     7 ISR=     1 T=0 IP=      1 IndIP=     39 IndIPD=      0 C=  5.363452D-01  0.000000D+00                             NZ=T
 IS=    17 IAt=     7 ISR=     1 T=0 IP=      2 IndIP=     40 IndIPD=      1 C=  9.894521D-01  0.000000D+00                             NZ=T
 IS=    17 IAt=     7 ISR=     1 T=0 IP=      3 IndIP=     41 IndIPD=      2 C=  1.597283D+00  0.000000D+00                             NZ=T
 IS=    17 IAt=     7 ISR=     1 T=0 IP=      4 IndIP=     42 IndIPD=      3 C=  2.079187D+00  0.000000D+00                             NZ=T
 IS=    17 IAt=     7 ISR=     1 T=0 IP=      5 IndIP=     43 IndIPD=      4 C=  1.774174D+00  0.000000D+00                             NZ=T
 IS=    17 IAt=     7 ISR=     1 T=0 IP=      6 IndIP=     44 IndIPD=      5 C=  6.125797D-01  0.000000D+00                             NZ=T
 IS=    18 IAt=     7 ISR=     2 T=1 IP=      1 IndIP=     45 IndIPD=      0 C= -3.995564D-01  1.296082D+00                             NZ=T
 IS=    18 IAt=     7 ISR=     2 T=1 IP=      2 IndIP=     46 IndIPD=      1 C= -1.841552D-01  9.937536D-01                             NZ=T
 IS=    18 IAt=     7 ISR=     2 T=1 IP=      3 IndIP=     47 IndIPD=      2 C=  5.163903D-01  4.959527D-01                             NZ=T
 IS=    19 IAt=     7 ISR=     3 T=1 IP=      1 IndIP=     48 IndIPD=      0 C=  1.876179D-01  1.541276D-01                             NZ=T
 IS=    20 IAt=     7 ISR=     4 T=2 IP=      1 IndIP=     49 IndIPD=      3 C=  0.000000D+00  0.000000D+00  1.113825D+00  0.000000D+00 NZ=T
 IS=    21 IAt=     8 ISR=     1 T=0 IP=      1 IndIP=     50 IndIPD=      0 C=  6.789979D-01  0.000000D+00                             NZ=T
 IS=    21 IAt=     8 ISR=     1 T=0 IP=      2 IndIP=     51 IndIPD=      1 C=  1.250431D+00  0.000000D+00                             NZ=T
 IS=    21 IAt=     8 ISR=     1 T=0 IP=      3 IndIP=     52 IndIPD=      2 C=  2.020356D+00  0.000000D+00                             NZ=T
 IS=    21 IAt=     8 ISR=     1 T=0 IP=      4 IndIP=     53 IndIPD=      3 C=  2.644212D+00  0.000000D+00                             NZ=T
 IS=    21 IAt=     8 ISR=     1 T=0 IP=      5 IndIP=     54 IndIPD=      4 C=  2.265005D+00  0.000000D+00                             NZ=T
 IS=    21 IAt=     8 ISR=     1 T=0 IP=      6 IndIP=     55 IndIPD=      5 C=  7.791879D-01  0.000000D+00                             NZ=T
 IS=    22 IAt=     8 ISR=     2 T=1 IP=      1 IndIP=     56 IndIPD=      0 C= -5.158747D-01  2.068052D+00                             NZ=T
 IS=    22 IAt=     8 ISR=     2 T=1 IP=      2 IndIP=     57 IndIPD=      1 C= -2.550231D-01  1.610011D+00                             NZ=T
 IS=    22 IAt=     8 ISR=     2 T=1 IP=      3 IndIP=     58 IndIPD=      2 C=  6.727345D-01  7.644904D-01                             NZ=T
 IS=    23 IAt=     8 ISR=     3 T=1 IP=      1 IndIP=     59 IndIPD=      0 C=  2.226950D-01  2.050881D-01                             NZ=T
 IS=    24 IAt=     8 ISR=     4 T=2 IP=      1 IndIP=     60 IndIPD=      4 C=  0.000000D+00  0.000000D+00  1.113825D+00  0.000000D+00 NZ=T
 IS=    25 IAt=     9 ISR=     1 T=0 IP=      1 IndIP=     61 IndIPD=      0 C=  2.149354D-01  0.000000D+00                             NZ=T
 IS=    25 IAt=     9 ISR=     1 T=0 IP=      2 IndIP=     62 IndIPD=      1 C=  3.645712D-01  0.000000D+00                             NZ=T
 IS=    25 IAt=     9 ISR=     1 T=0 IP=      3 IndIP=     63 IndIPD=      2 C=  4.150514D-01  0.000000D+00                             NZ=T
 IS=    26 IAt=     9 ISR=     2 T=0 IP=      1 IndIP=     64 IndIPD=      0 C=  1.813806D-01  0.000000D+00                             NZ=T
 IS=    27 IAt=    10 ISR=     1 T=0 IP=      1 IndIP=     65 IndIPD=      0 C=  2.149354D-01  0.000000D+00                             NZ=T
 IS=    27 IAt=    10 ISR=     1 T=0 IP=      2 IndIP=     66 IndIPD=      1 C=  3.645712D-01  0.000000D+00                             NZ=T
 IS=    27 IAt=    10 ISR=     1 T=0 IP=      3 IndIP=     67 IndIPD=      2 C=  4.150514D-01  0.000000D+00                             NZ=T
 IS=    28 IAt=    10 ISR=     2 T=0 IP=      1 IndIP=     68 IndIPD=      0 C=  1.813806D-01  0.000000D+00                             NZ=T
 IS=    29 IAt=    11 ISR=     1 T=0 IP=      1 IndIP=     69 IndIPD=      0 C=  2.149354D-01  0.000000D+00                             NZ=T
 IS=    29 IAt=    11 ISR=     1 T=0 IP=      2 IndIP=     70 IndIPD=      1 C=  3.645712D-01  0.000000D+00                             NZ=T
 IS=    29 IAt=    11 ISR=     1 T=0 IP=      3 IndIP=     71 IndIPD=      2 C=  4.150514D-01  0.000000D+00                             NZ=T
 IS=    30 IAt=    11 ISR=     2 T=0 IP=      1 IndIP=     72 IndIPD=      0 C=  1.813806D-01  0.000000D+00                             NZ=T
 IS=    31 IAt=    12 ISR=     1 T=0 IP=      1 IndIP=     73 IndIPD=      0 C=  2.149354D-01  0.000000D+00                             NZ=T
 IS=    31 IAt=    12 ISR=     1 T=0 IP=      2 IndIP=     74 IndIPD=      1 C=  3.645712D-01  0.000000D+00                             NZ=T
 IS=    31 IAt=    12 ISR=     1 T=0 IP=      3 IndIP=     75 IndIPD=      2 C=  4.150514D-01  0.000000D+00                             NZ=T
 IS=    32 IAt=    12 ISR=     2 T=0 IP=      1 IndIP=     76 IndIPD=      0 C=  1.813806D-01  0.000000D+00                             NZ=T
 NAtoms=   12 NActive=   12 NUniq=   12 SFac= 1.00D+00 NAtFMM=   60 NAOKFM=F Big=F
 Integral buffers will be    131072 words long.
 Raffenetti 1 integral format.
 Two-electron integral symmetry is turned off.
 NPDir=0 NMtPBC=     1 NCelOv=     1 NCel=       1 NClECP=     1 NCelD=      1
         NCelK=      1 NCelE2=     1 NClLst=     1 CellRange=     0.0.
 One-electron integrals computed using PRISM.
 Entering OneElI...
 Calculate overlap and kinetic energy integrals
    NBasis =  76  MinDer = 0  MaxDer = 0
 Requested accuracy = 0.1000D-12
 PrsmSu:  NPrtUS=   2 ThrOK=T IAlg=1 NPAlg=2 LenDen=           0.
 Prism:   IPart=     0 DynPar=F LinDyn=F Incr=           2.
 PRISM was handed    67064418 working-precision words and   528 shell-pairs
 PRISM was handed    67064418 working-precision words and   528 shell-pairs
 IPart=  1 NShTot=         264 NBatch=          27 AvBLen=         9.8
 IPart=  0 NShTot=         264 NBatch=          27 AvBLen=         9.8
 PrSmSu:  NxtVal=              5.
 *** Overlap *** 
                1             2             3             4             5 
      1  0.100000D+01
      2  0.219059D+00  0.100000D+01
      3  0.000000D+00  0.000000D+00  0.100000D+01
      4  0.000000D+00  0.000000D+00  0.000000D+00  0.100000D+01
      5  0.000000D+00  0.000000D+00  0.000000D+00  0.000000D+00  0.100000D+01
      6  0.184261D+00  0.812273D+00  0.000000D+00  0.000000D+00  0.000000D+00
      7  0.000000D+00  0.000000D+00  0.569754D+00  0.000000D+00  0.000000D+00
      8  0.000000D+00  0.000000D+00  0.000000D+00  0.569754D+00  0.000000D+00
      9  0.000000D+00  0.000000D+00  0.000000D+00  0.000000D+00  0.569754D+00
     10  0.791027D-01  0.710235D+00  0.000000D+00  0.000000D+00  0.000000D+00
     11  0.791027D-01  0.710235D+00  0.000000D+00  0.000000D+00  0.000000D+00
     12  0.791027D-01  0.710235D+00  0.000000D+00  0.000000D+00  0.000000D+00
     13  0.000000D+00  0.000000D+00  0.000000D+00  0.000000D+00  0.000000D+00
     14  0.000000D+00  0.000000D+00  0.000000D+00  0.000000D+00  0.000000D+00
     15  0.000000D+00  0.000000D+00  0.000000D+00  0.000000D+00  0.000000D+00
     16  0.000000D+00  0.594883D-02  0.330850D-02 -0.138670D-01  0.486578D-02
     17  0.244276D-02  0.866226D-01  0.326726D-01 -0.136941D+00  0.480512D-01
     18 -0.147146D-02 -0.282724D-01  0.313976D-01  0.487026D-01 -0.170892D-01
     19  0.616738D-02  0.118499D+00  0.487026D-01 -0.161111D+00  0.716263D-01
     20 -0.216406D-02 -0.415799D-01 -0.170892D-01  0.716263D-01  0.178846D-01
     21  0.405578D-01  0.256939D+00  0.525789D-01 -0.220375D+00  0.773271D-01
     22 -0.225060D-01 -0.105211D+00  0.158436D+00  0.946170D-01 -0.332001D-01
     23  0.943298D-01  0.440972D+00  0.946170D-01 -0.215560D+00  0.139152D+00
     24 -0.330993D-01 -0.154732D+00 -0.332001D-01  0.139152D+00  0.132184D+00
     25  0.130346D-02  0.610326D-01 -0.483765D-02 -0.980450D-01  0.344029D-01
     26  0.170264D-01  0.204976D+00  0.873483D-01 -0.247784D+00  0.128462D+00
     27  0.240713D-02  0.711367D-01  0.278817D-01 -0.116861D+00 -0.512243D-03
     28 -0.688966D-02 -0.630748D-01  0.744442D-01  0.930134D-01 -0.412159D-01
     29  0.241750D-02  0.221322D-01 -0.261216D-01 -0.412159D-01 -0.998573D-02
     30 -0.101325D-01 -0.927634D-01 -0.412159D-01  0.136794D+00  0.418534D-01
     31  0.356562D-01  0.286172D+00  0.269961D-01  0.213721D+00  0.315187D+00
     32  0.943951D-01  0.484991D+00  0.188130D-01  0.148937D+00  0.219647D+00
     33  0.178678D-01  0.198983D+00 -0.842820D-01  0.174354D+00 -0.214000D+00
     34  0.779676D-01  0.417493D+00 -0.757724D-01  0.156750D+00 -0.192393D+00
     35  0.281929D-05  0.180859D-02  0.206568D-03 -0.436075D-02 -0.298832D-03
     36  0.655896D-02  0.594637D-01  0.325978D-02 -0.688156D-01 -0.471577D-02
     37  0.131949D-05  0.119808D-02  0.961202D-03 -0.247789D-02  0.135871D-02
     38  0.527665D-02  0.500717D-01  0.192407D-01 -0.496008D-01  0.271978D-01
     39  0.998317D+00  0.219189D+00 -0.655766D-02  0.122743D-01 -0.126050D-01
     40  0.219189D+00  0.999903D+00 -0.309152D-02  0.578656D-02 -0.594244D-02
     41  0.655766D-02  0.309152D-02  0.999831D+00  0.621256D-04 -0.637992D-04
     42 -0.122743D-01 -0.578656D-02  0.621256D-04  0.999748D+00  0.119416D-03
     43  0.126050D-01  0.594244D-02 -0.637992D-04  0.119416D-03  0.999741D+00
     44  0.184252D+00  0.812241D+00 -0.144449D-02  0.270373D-02 -0.277656D-02
     45  0.901119D-03  0.307273D-02  0.569725D+00  0.107447D-04 -0.110341D-04
     46 -0.168667D-02 -0.575139D-02  0.107447D-04  0.569711D+00  0.206531D-04
     47  0.173211D-02  0.590632D-02 -0.110341D-04  0.206531D-04  0.569710D+00
     48  0.791123D-01  0.710172D+00  0.295054D-02  0.596882D-02 -0.612961D-02
     49  0.791774D-01  0.710185D+00 -0.318914D-02 -0.552221D-02 -0.613009D-02
     50  0.791823D-01  0.710186D+00 -0.318916D-02  0.596932D-02  0.567094D-02
     51 -0.842147D-04 -0.159079D-04 -0.995161D-02  0.531629D-02  0.000000D+00
     52  0.864834D-04  0.163365D-04  0.102197D-01  0.000000D+00  0.531626D-02
     53 -0.161876D-03 -0.305779D-04  0.000000D+00  0.102189D-01 -0.995074D-02
     54  0.000000D+00  0.582566D-02  0.327203D-02 -0.136156D-01  0.475429D-02
     55  0.237725D-02  0.855103D-01  0.325529D-01 -0.135459D+00  0.472996D-01
     56 -0.144603D-02 -0.281731D-01  0.307300D-01  0.486020D-01 -0.169708D-01
     57  0.601725D-02  0.117234D+00  0.486020D-01 -0.159833D+00  0.706190D-01
     58 -0.210110D-02 -0.409357D-01 -0.169708D-01  0.706190D-01  0.177511D-01
     59  0.402148D-01  0.255334D+00  0.527544D-01 -0.219522D+00  0.766525D-01
     60 -0.225377D-01 -0.105598D+00  0.156951D+00  0.951851D-01 -0.332367D-01
     61  0.937839D-01  0.439416D+00  0.951851D-01 -0.216260D+00  0.138305D+00
     62 -0.327474D-01 -0.153435D+00 -0.332367D-01  0.138305D+00  0.131532D+00
     63  0.128594D-02  0.603920D-01 -0.472991D-02 -0.972612D-01  0.339616D-01
     64  0.166399D-01  0.203138D+00  0.872952D-01 -0.246310D+00  0.126841D+00
     65  0.233167D-02  0.701142D-01  0.277269D-01 -0.115377D+00 -0.546776D-03
     66 -0.678258D-02 -0.630580D-01  0.730385D-01  0.931637D-01 -0.410292D-01
     67  0.236834D-02  0.220185D-01 -0.255035D-01 -0.410292D-01 -0.100116D-01
     68 -0.985513D-02 -0.916237D-01 -0.410292D-01  0.135368D+00  0.416602D-01
     69  0.344718D-01  0.281166D+00  0.226990D-01  0.214947D+00  0.308675D+00
     70  0.935212D-01  0.481469D+00  0.160203D-01  0.151703D+00  0.217854D+00
     71  0.169732D-01  0.193650D+00 -0.785642D-01  0.176937D+00 -0.205625D+00
     72  0.768626D-01  0.412846D+00 -0.719569D-01  0.162057D+00 -0.188332D+00
     73  0.301726D-05  0.187636D-02  0.215999D-03 -0.451406D-02 -0.275841D-03
     74  0.668763D-02  0.603834D-01  0.333687D-02 -0.697356D-01 -0.426134D-02
     75  0.108636D-05  0.107808D-02  0.895483D-03 -0.224031D-02  0.122457D-02
     76  0.499048D-02  0.479126D-01  0.190499D-01 -0.476587D-01  0.260506D-01
                6             7             8             9            10 
      6  0.100000D+01
      7  0.000000D+00  0.100000D+01
      8  0.000000D+00  0.000000D+00  0.100000D+01
      9  0.000000D+00  0.000000D+00  0.000000D+00  0.100000D+01
     10  0.629936D+00  0.000000D+00  0.000000D+00  0.000000D+00  0.100000D+01
     11  0.629936D+00  0.000000D+00  0.000000D+00  0.000000D+00  0.333333D+00
     12  0.629936D+00  0.000000D+00  0.000000D+00  0.000000D+00  0.333333D+00
     13  0.000000D+00  0.000000D+00  0.000000D+00  0.000000D+00  0.000000D+00
     14  0.000000D+00  0.000000D+00  0.000000D+00  0.000000D+00  0.000000D+00
     15  0.000000D+00  0.000000D+00  0.000000D+00  0.000000D+00  0.000000D+00
     16  0.377059D-01  0.190279D-01 -0.797522D-01  0.279842D-01  0.846847D-03
     17  0.227684D+00  0.956270D-01 -0.400804D+00  0.140638D+00  0.336547D-01
     18 -0.351219D-01  0.120387D+00  0.635472D-01 -0.222980D-01  0.683401D-02
     19  0.147207D+00  0.635472D-01 -0.130798D+00  0.934582D-01  0.545471D-01
     20 -0.516534D-01 -0.222980D-01  0.934582D-01  0.102755D+00 -0.191400D-01
     21  0.456199D+00  0.131654D+00 -0.551802D+00  0.193621D+00  0.174120D+00
     22 -0.117438D+00  0.419346D+00  0.142049D+00 -0.498433D-01 -0.390232D-01
     23  0.492220D+00  0.142049D+00 -0.142135D+00  0.208910D+00  0.335146D+00
     24 -0.172715D+00 -0.498433D-01  0.208910D+00  0.379933D+00 -0.117599D+00
     25  0.204253D+00  0.513859D-01 -0.366376D+00  0.128557D+00  0.303102D-01
     26  0.281580D+00  0.120506D+00 -0.354079D+00  0.177227D+00  0.106885D+00
     27  0.209681D+00  0.897359D-01 -0.376112D+00  0.789890D-01  0.273768D-01
     28 -0.338839D-01  0.116270D+00  0.295784D-01 -0.213266D-01  0.193737D-01
     29  0.118895D-01 -0.407977D-01 -0.213266D-01 -0.237171D-01 -0.679800D-02
     30 -0.498327D-01 -0.213266D-01  0.435006D-01  0.994060D-01 -0.551063D-01
     31  0.384869D+00  0.365097D-01  0.289037D+00  0.426260D+00  0.125973D+00
     32  0.713351D+00  0.409677D-01  0.324330D+00  0.478309D+00  0.358874D+00
     33  0.325628D+00 -0.145365D+00  0.300718D+00 -0.369097D+00  0.103170D+00
     34  0.644680D+00 -0.174329D+00  0.360634D+00 -0.442637D+00  0.311487D+00
     35  0.376482D-01  0.539353D-02 -0.113860D+00 -0.780257D-02  0.280767D-03
     36  0.173765D+00  0.151707D-01 -0.320262D+00 -0.219468D-01  0.360742D-01
     37  0.311618D-01  0.314262D-01 -0.810139D-01  0.444226D-01  0.388537D-03
     38  0.154848D+00  0.952093D-01 -0.245441D+00  0.134584D+00  0.336122D-01
     39  0.184252D+00 -0.901119D-03  0.168667D-02 -0.173211D-02  0.791123D-01
     40  0.812241D+00 -0.307273D-02  0.575139D-02 -0.590632D-02  0.710172D+00
     41  0.144449D-02  0.569725D+00  0.107447D-04 -0.110341D-04 -0.295054D-02
     42 -0.270373D-02  0.107447D-04  0.569711D+00  0.206531D-04 -0.596882D-02
     43  0.277656D-02 -0.110341D-04  0.206531D-04  0.569710D+00  0.612961D-02
     44  0.999974D+00 -0.253532D-02  0.474550D-02 -0.487334D-02  0.629910D+00
     45  0.253532D-02  0.999967D+00  0.120317D-04 -0.123558D-04  0.152523D-02
     46 -0.474550D-02  0.120317D-04  0.999951D+00  0.231270D-04 -0.493738D-02
     47  0.487334D-02 -0.123558D-04  0.231270D-04  0.999950D+00  0.507038D-02
     48  0.629910D+00 -0.152523D-02  0.493738D-02 -0.507038D-02  0.999855D+00
     49  0.629914D+00 -0.263785D-02  0.285489D-02 -0.507041D-02  0.333337D+00
     50  0.629914D+00 -0.263785D-02  0.493741D-02 -0.293180D-02  0.333339D+00
     51 -0.457259D-05 -0.180349D-02  0.963503D-03  0.000000D+00  0.329342D-04
     52  0.469577D-05  0.185207D-02  0.000000D+00  0.963501D-03 -0.338214D-04
     53 -0.878934D-05  0.000000D+00  0.185202D-02 -0.180344D-02 -0.633093D-04
     54  0.374470D-01  0.190854D-01 -0.794181D-01  0.277312D-01  0.835437D-03
     55  0.226382D+00  0.960278D-01 -0.399592D+00  0.139529D+00  0.332594D-01
     56 -0.352631D-01  0.119378D+00  0.639738D-01 -0.223383D-01  0.671772D-02
     57  0.146737D+00  0.639738D-01 -0.131456D+00  0.929544D-01  0.540465D-01
     58 -0.512375D-01 -0.223383D-01  0.929544D-01  0.102295D+00 -0.188719D-01
     59  0.454405D+00  0.132441D+00 -0.551114D+00  0.192438D+00  0.173019D+00
     60 -0.118140D+00  0.417022D+00  0.143284D+00 -0.500317D-01 -0.391903D-01
     61  0.491606D+00  0.143284D+00 -0.144778D+00  0.208192D+00  0.333924D+00
     62 -0.171659D+00 -0.500317D-01  0.208192D+00  0.378759D+00 -0.116599D+00
     63  0.203156D+00  0.516351D-01 -0.365391D+00  0.127587D+00  0.297016D-01
     64  0.280380D+00  0.121187D+00 -0.353757D+00  0.176085D+00  0.106098D+00
     65  0.208416D+00  0.900821D-01 -0.374850D+00  0.783293D-01  0.270032D-01
     66 -0.341135D-01  0.115615D+00  0.300282D-01 -0.214241D-01  0.191127D-01
     67  0.119117D-01 -0.403703D-01 -0.214241D-01 -0.238465D-01 -0.667375D-02
     68 -0.495672D-01 -0.214241D-01  0.436312D-01  0.992301D-01 -0.544787D-01
     69  0.381752D+00  0.310725D-01  0.294238D+00  0.422543D+00  0.122820D+00
     70  0.709847D+00  0.349797D-01  0.331237D+00  0.475675D+00  0.355906D+00
     71  0.321591D+00 -0.137927D+00  0.310630D+00 -0.360995D+00  0.979981D-01
     72  0.639827D+00 -0.166231D+00  0.374374D+00 -0.435073D+00  0.307111D+00
     73  0.382895D-01  0.552746D-02 -0.115516D+00 -0.705883D-02  0.293632D-03
     74  0.175563D+00  0.154446D-01 -0.322769D+00 -0.197235D-01  0.366851D-01
     75  0.296879D-01  0.310116D-01 -0.775845D-01  0.424083D-01  0.356331D-03
     76  0.150340D+00  0.957576D-01 -0.239565D+00  0.130948D+00  0.322978D-01
               11            12            13            14            15 
     11  0.100000D+01
     12  0.333333D+00  0.100000D+01
     13  0.000000D+00  0.000000D+00  0.100000D+01
     14  0.000000D+00  0.000000D+00  0.000000D+00  0.100000D+01
     15  0.000000D+00  0.000000D+00  0.000000D+00  0.000000D+00  0.100000D+01
     16  0.120607D-01  0.163400D-02 -0.491381D-02  0.172420D-02 -0.722669D-02
     17  0.158659D+00  0.424293D-01 -0.547757D-01  0.192202D-01 -0.805579D-01
     18 -0.664011D-01 -0.167618D-01 -0.486516D-01  0.170713D-01  0.344047D-01
     19  0.195118D+00  0.702539D-01 -0.808610D-01  0.344047D-01 -0.118921D+00
     20 -0.976553D-01  0.453935D-02  0.344047D-01  0.511691D-02 -0.214466D-01
     21  0.272626D+00  0.181035D+00 -0.431641D-01  0.151458D-01 -0.634810D-01
     22 -0.125199D+00 -0.831372D-01 -0.128777D+00  0.451863D-01  0.291525D-01
     23  0.353161D+00  0.348455D+00 -0.476280D-01  0.291525D-01 -0.700460D-01
     24 -0.184128D+00 -0.620609D-01  0.291525D-01  0.252246D-01 -0.105725D+00
     25  0.106885D+00  0.273768D-01  0.193737D-01 -0.679800D-02 -0.551063D-01
     26  0.283974D+00  0.136900D+00 -0.130527D+00  0.657460D-01 -0.191964D+00
     27  0.136900D+00  0.257888D-01 -0.479919D-01 -0.310589D-02  0.130178D-01
     28 -0.130527D+00 -0.479919D-01 -0.115496D+00  0.493507D-01  0.793285D-01
     29  0.657460D-01 -0.310589D-02  0.493507D-01  0.783221D-02  0.153312D-01
     30 -0.191964D+00  0.130178D-01  0.793285D-01  0.153312D-01 -0.527681D-01
     31  0.233003D+00  0.360792D+00  0.237959D-01  0.350933D-01  0.277824D+00
     32  0.383355D+00  0.412584D+00  0.544278D-02  0.802679D-02  0.635458D-01
     33  0.180302D+00  0.231279D+00 -0.842712D-01  0.103433D+00 -0.213973D+00
     34  0.335963D+00  0.352139D+00 -0.267418D-01  0.328225D-01 -0.679000D-01
     35  0.355849D-02  0.288823D-03 -0.269532D-03 -0.184704D-04  0.389919D-03
     36  0.770163D-01  0.361748D-01 -0.336673D-02 -0.230714D-03  0.487049D-02
     37  0.164324D-02  0.610366D-03 -0.992328D-03  0.544127D-03 -0.140271D-02
     38  0.549840D-01  0.373907D-01 -0.169027D-01  0.926832D-02 -0.238929D-01
     39  0.791774D-01  0.791823D-01 -0.842147D-04  0.864834D-04 -0.161876D-03
     40  0.710185D+00  0.710186D+00 -0.159079D-04  0.163365D-04 -0.305779D-04
     41  0.318914D-02  0.318916D-02  0.995161D-02 -0.102197D-01  0.000000D+00
     42  0.552221D-02 -0.596932D-02 -0.531629D-02  0.000000D+00 -0.102189D-01
     43  0.613009D-02 -0.567094D-02  0.000000D+00 -0.531626D-02  0.995074D-02
     44  0.629914D+00  0.629914D+00 -0.457259D-05  0.469577D-05 -0.878934D-05
     45  0.263785D-02  0.263785D-02  0.180349D-02 -0.185207D-02  0.000000D+00
     46 -0.285489D-02 -0.493741D-02 -0.963503D-03  0.000000D+00 -0.185202D-02
     47  0.507041D-02  0.293180D-02  0.000000D+00 -0.963501D-03  0.180344D-02
     48  0.333337D+00  0.333339D+00  0.329342D-04 -0.338214D-04 -0.633093D-04
     49  0.999804D+00  0.333365D+00  0.329317D-04  0.338261D-04  0.633006D-04
     50  0.333365D+00  0.999800D+00 -0.329389D-04 -0.338186D-04  0.633002D-04
     51  0.329317D-04 -0.329389D-04  0.999738D+00  0.109648D-03 -0.585759D-04
     52  0.338261D-04 -0.338186D-04  0.109648D-03  0.999732D+00  0.570390D-04
     53  0.633006D-04  0.633002D-04 -0.585759D-04  0.570390D-04  0.999656D+00
     54  0.117716D-01  0.158028D-02 -0.483103D-02  0.168690D-02 -0.701953D-02
     55  0.156843D+00  0.416764D-01 -0.545928D-01  0.190627D-01 -0.793237D-01
     56 -0.662137D-01 -0.166133D-01 -0.475020D-01  0.165867D-01  0.341636D-01
     57  0.193529D+00  0.691312D-01 -0.807739D-01  0.341636D-01 -0.117365D+00
     58 -0.962090D-01  0.449360D-02  0.341636D-01  0.513658D-02 -0.213744D-01
     59  0.271276D+00  0.179711D+00 -0.434051D-01  0.151561D-01 -0.630679D-01
     60 -0.125819D+00 -0.833507D-01 -0.127825D+00  0.446337D-01  0.292511D-01
     61  0.352714D+00  0.346840D+00 -0.482149D-01  0.292511D-01 -0.700566D-01
     62 -0.182816D+00 -0.614537D-01  0.292511D-01  0.253422D-01 -0.105454D+00
     63  0.106098D+00  0.270032D-01  0.191127D-01 -0.667375D-02 -0.544787D-01
     64  0.282615D+00  0.134998D+00 -0.130837D+00  0.654513D-01 -0.190107D+00
     65  0.134998D+00  0.253827D-01 -0.477066D-01 -0.310765D-02  0.129316D-01
     66 -0.130837D+00 -0.477066D-01 -0.113254D+00  0.481005D-01  0.791297D-01
     67  0.654513D-01 -0.310765D-02  0.481005D-01  0.770381D-02  0.154150D-01
     68 -0.190107D+00  0.129316D-01  0.791297D-01  0.154150D-01 -0.527369D-01
     69  0.233390D+00  0.352168D+00  0.204524D-01  0.293708D-01  0.278125D+00
     70  0.381612D+00  0.409226D+00  0.475492D-02  0.682832D-02  0.646602D-01
     71  0.183267D+00  0.220500D+00 -0.816822D-01  0.949258D-01 -0.213786D+00
     72  0.334823D+00  0.346923D+00 -0.265457D-01  0.308497D-01 -0.694776D-01
     73  0.370318D-02  0.298569D-03 -0.283229D-03 -0.173073D-04  0.361697D-03
     74  0.781098D-01  0.367451D-01 -0.344112D-02 -0.210277D-03  0.439448D-02
     75  0.146036D-02  0.538982D-03 -0.909686D-03  0.497241D-03 -0.124399D-02
     76  0.526585D-01  0.356663D-01 -0.167766D-01  0.917019D-02 -0.229419D-01
               16            17            18            19            20 
     16  0.100000D+01
     17  0.222216D+00  0.100000D+01
     18  0.000000D+00  0.000000D+00  0.100000D+01
     19  0.000000D+00  0.000000D+00  0.000000D+00  0.100000D+01
     20  0.000000D+00  0.000000D+00  0.000000D+00  0.000000D+00  0.100000D+01
     21  0.171869D+00  0.775507D+00  0.000000D+00  0.000000D+00  0.000000D+00
     22  0.000000D+00  0.000000D+00  0.519296D+00  0.000000D+00  0.000000D+00
     23  0.000000D+00  0.000000D+00  0.000000D+00  0.519296D+00  0.000000D+00
     24  0.000000D+00  0.000000D+00  0.000000D+00  0.000000D+00  0.519296D+00
     25  0.504134D-01  0.636041D+00  0.000000D+00  0.000000D+00  0.000000D+00
     26  0.504134D-01  0.636041D+00  0.000000D+00  0.000000D+00  0.000000D+00
     27  0.504134D-01  0.636041D+00  0.000000D+00  0.000000D+00  0.000000D+00
     28  0.000000D+00  0.000000D+00  0.000000D+00  0.000000D+00  0.000000D+00
     29  0.000000D+00  0.000000D+00  0.000000D+00  0.000000D+00  0.000000D+00
     30  0.000000D+00  0.000000D+00  0.000000D+00  0.000000D+00  0.000000D+00
     31  0.485549D-04  0.475612D-02 -0.123304D-02  0.954619D-02  0.187643D-02
     32  0.132866D-01  0.946394D-01 -0.106395D-01  0.823710D-01  0.161911D-01
     33  0.000000D+00  0.148722D-03 -0.100466D-03  0.310970D-03 -0.203180D-03
     34  0.279873D-02  0.255429D-01 -0.746796D-02  0.231154D-01 -0.151030D-01
     35  0.118977D-01  0.135696D+00 -0.342982D-01 -0.161511D+00 -0.103078D+00
     36  0.596059D-01  0.333316D+00 -0.327999D-01 -0.154456D+00 -0.985756D-01
     37  0.278497D-01  0.228509D+00  0.132448D+00 -0.191760D+00  0.181922D+00
     38  0.750112D-01  0.404075D+00  0.871098D-01 -0.126119D+00  0.119649D+00
     39  0.000000D+00  0.230251D-02 -0.140009D-02  0.583675D-02 -0.206522D-02
     40  0.568416D-02  0.842207D-01 -0.277275D-01  0.115592D+00 -0.408998D-01
     41  0.319178D-02  0.320326D-01  0.302303D-01  0.478440D-01 -0.169286D-01
     42 -0.133061D-01 -0.133539D+00  0.478440D-01 -0.157747D+00  0.705729D-01
     43  0.470808D-02  0.472501D-01 -0.169286D-01  0.705729D-01  0.167360D-01
     44  0.371450D-01  0.224862D+00 -0.350139D-01  0.145968D+00 -0.516477D-01
     45  0.189283D-01  0.953685D-01  0.118560D+00  0.636270D-01 -0.225131D-01
     46 -0.789092D-01 -0.397577D+00  0.636270D-01 -0.131429D+00  0.938538D-01
     47  0.279204D-01  0.140675D+00 -0.225131D-01  0.938538D-01  0.100614D+00
     48  0.806823D-03  0.326260D-01  0.658032D-02  0.530708D-01 -0.187780D-01
     49  0.114070D-01  0.154348D+00 -0.650543D-01  0.190698D+00 -0.959592D-01
     50  0.156777D-02  0.413640D-01 -0.164865D-01  0.687296D-01  0.416582D-02
     51 -0.467297D-02 -0.536598D-01 -0.466512D-01 -0.794373D-01  0.340246D-01
     52  0.165344D-02  0.189865D-01  0.165066D-01  0.340246D-01  0.468458D-02
     53 -0.689293D-02 -0.791516D-01  0.340246D-01 -0.117175D+00 -0.195293D-01
     54  0.999297D+00  0.222272D+00  0.807997D-02 -0.917202D-02 -0.261509D-02
     55  0.222272D+00  0.999958D+00  0.369804D-02 -0.419785D-02 -0.119687D-02
     56 -0.807997D-02 -0.369804D-02  0.999892D+00  0.560483D-04  0.159802D-04
     57  0.917202D-02  0.419785D-02  0.560483D-04  0.999877D+00 -0.181401D-04
     58  0.261509D-02  0.119687D-02  0.159802D-04 -0.181401D-04  0.999936D+00
     59  0.171866D+00  0.775495D+00  0.150113D-02 -0.170402D-02 -0.485843D-03
     60 -0.961567D-03 -0.344756D-02  0.519280D+00  0.790866D-05  0.225488D-05
     61  0.109153D-02  0.391351D-02  0.790866D-05  0.519278D+00 -0.255964D-05
     62  0.311212D-03  0.111580D-02  0.225488D-05 -0.255964D-05  0.519286D+00
     63  0.504340D-01  0.636030D+00 -0.418806D-02 -0.312818D-02 -0.891894D-03
     64  0.504409D-01  0.636034D+00  0.275577D-02  0.475406D-02 -0.891906D-03
     65  0.504126D-01  0.636020D+00  0.275562D-02 -0.312805D-02  0.135551D-02
     66 -0.470861D-04 -0.235176D-04  0.682601D-02 -0.601322D-02  0.000000D+00
     67 -0.134250D-04 -0.670524D-05  0.194620D-02  0.000000D+00 -0.601348D-02
     68  0.152394D-04  0.761149D-05  0.000000D+00  0.194618D-02  0.682623D-02
     69  0.421969D-04  0.436582D-02 -0.117740D-02  0.882023D-02  0.171784D-02
     70  0.127848D-01  0.916280D-01 -0.107217D-01  0.803193D-01  0.156431D-01
     71  0.000000D+00  0.130826D-03 -0.865579D-04  0.277797D-03 -0.177555D-03
     72  0.264207D-02  0.243339D-01 -0.696392D-02  0.223499D-01 -0.142850D-01
     73  0.128368D-01  0.142154D+00 -0.359307D-01 -0.168882D+00 -0.105386D+00
     74  0.608459D-01  0.339114D+00 -0.332528D-01 -0.156295D+00 -0.975314D-01
     75  0.252331D-01  0.215097D+00  0.131401D+00 -0.182186D+00  0.170740D+00
     76  0.730440D-01  0.395183D+00  0.903379D-01 -0.125252D+00  0.117383D+00
               21            22            23            24            25 
     21  0.100000D+01
     22  0.000000D+00  0.100000D+01
     23  0.000000D+00  0.000000D+00  0.100000D+01
     24  0.000000D+00  0.000000D+00  0.000000D+00  0.100000D+01
     25  0.670250D+00  0.000000D+00  0.000000D+00  0.000000D+00  0.100000D+01
     26  0.670250D+00  0.000000D+00  0.000000D+00  0.000000D+00  0.333333D+00
     27  0.670250D+00  0.000000D+00  0.000000D+00  0.000000D+00  0.333333D+00
     28  0.000000D+00  0.000000D+00  0.000000D+00  0.000000D+00  0.000000D+00
     29  0.000000D+00  0.000000D+00  0.000000D+00  0.000000D+00  0.000000D+00
     30  0.000000D+00  0.000000D+00  0.000000D+00  0.000000D+00  0.000000D+00
     31  0.640537D-01 -0.219821D-01  0.170185D+00  0.334521D-01  0.279101D-02
     32  0.248424D+00 -0.482120D-01  0.373257D+00  0.733686D-01  0.834169D-01
     33  0.129213D-01 -0.117978D-01  0.365175D-01 -0.238597D-01  0.142352D-03
     34  0.100227D+00 -0.520129D-01  0.160994D+00 -0.105190D+00  0.237868D-01
     35  0.302186D+00 -0.884725D-01 -0.416620D+00 -0.265892D+00  0.827739D-01
     36  0.595643D+00 -0.979625D-01 -0.461309D+00 -0.294413D+00  0.299352D+00
     37  0.383590D+00  0.244975D+00 -0.354678D+00  0.336482D+00  0.196757D+00
     38  0.680996D+00  0.244014D+00 -0.353286D+00  0.335162D+00  0.376753D+00
     39  0.398154D-01 -0.223100D-01  0.930071D-01 -0.329087D-01  0.124403D-02
     40  0.253460D+00 -0.104811D+00  0.436940D+00 -0.154603D+00  0.594455D-01
     41  0.523399D-01  0.155752D+00  0.945908D-01 -0.334691D-01 -0.464059D-02
     42 -0.218197D+00  0.945908D-01 -0.215892D+00  0.139527D+00 -0.958273D-01
     43  0.772047D-01 -0.334691D-01  0.139527D+00  0.129073D+00  0.339066D-01
     44  0.452306D+00 -0.117575D+00  0.490153D+00 -0.173431D+00  0.201764D+00
     45  0.131807D+00  0.415107D+00  0.142836D+00 -0.505398D-01  0.512726D-01
     46 -0.549484D+00  0.142836D+00 -0.146093D+00  0.210693D+00 -0.363493D+00
     47  0.194424D+00 -0.505398D-01  0.210693D+00  0.374820D+00  0.128615D+00
     48  0.171594D+00 -0.388606D-01  0.331726D+00 -0.117375D+00  0.291236D-01
     49  0.269391D+00 -0.124924D+00  0.351065D+00 -0.184270D+00  0.104314D+00
     50  0.178614D+00 -0.828283D-01  0.345298D+00 -0.621240D-01  0.267997D-01
     51 -0.431128D-01 -0.126991D+00 -0.480881D-01  0.294903D-01  0.187708D-01
     52  0.152546D-01  0.449334D-01  0.294903D-01  0.248232D-01 -0.664167D-02
     53 -0.635941D-01  0.294903D-01 -0.709330D-01 -0.103484D+00 -0.543033D-01
     54  0.171866D+00  0.961567D-03 -0.109153D-02 -0.311212D-03  0.504340D-01
     55  0.775495D+00  0.344756D-02 -0.391351D-02 -0.111580D-02  0.636030D+00
     56 -0.150113D-02  0.519280D+00  0.790866D-05  0.225488D-05  0.418806D-02
     57  0.170402D-02  0.790866D-05  0.519278D+00 -0.255964D-05  0.312818D-02
     58  0.485843D-03  0.225488D-05 -0.255964D-05  0.519286D+00  0.891894D-03
     59  0.999990D+00  0.289073D-02 -0.328143D-02 -0.935587D-03  0.670242D+00
     60 -0.289073D-02  0.999982D+00  0.948581D-05  0.270455D-05 -0.143945D-02
     61  0.328143D-02  0.948581D-05  0.999979D+00 -0.307009D-05  0.347716D-02
     62  0.935587D-03  0.270455D-05 -0.307009D-05  0.999989D+00  0.991393D-03
     63  0.670242D+00  0.143945D-02 -0.347716D-02 -0.991393D-03  0.999941D+00
     64  0.670243D+00  0.306316D-02 -0.163400D-02 -0.991394D-03  0.333345D+00
     65  0.670240D+00  0.306315D-02 -0.347715D-02 -0.465876D-03  0.333332D+00
     66 -0.461430D-05  0.159620D-02 -0.140615D-02  0.000000D+00  0.206623D-04
     67 -0.131561D-05  0.455103D-03  0.000000D+00 -0.140617D-02  0.589114D-05
     68  0.149342D-05  0.000000D+00  0.455101D-03  0.159622D-02  0.668778D-05
     69  0.615626D-01 -0.220034D-01  0.164834D+00  0.321033D-01  0.258392D-02
     70  0.242913D+00 -0.491048D-01  0.367859D+00  0.716446D-01  0.808067D-01
     71  0.121802D-01 -0.108943D-01  0.349639D-01 -0.223473D-01  0.122488D-03
     72  0.969181D-01 -0.492772D-01  0.158149D+00 -0.101082D+00  0.225684D-01
     73  0.308708D+00 -0.900288D-01 -0.423155D+00 -0.264057D+00  0.867476D-01
     74  0.602830D+00 -0.987468D-01 -0.464132D+00 -0.289627D+00  0.304637D+00
     75  0.373152D+00  0.252828D+00 -0.350542D+00  0.328518D+00  0.192806D+00
     76  0.670535D+00  0.254940D+00 -0.353470D+00  0.331262D+00  0.370253D+00
               26            27            28            29            30 
     26  0.100000D+01
     27  0.333333D+00  0.100000D+01
     28  0.000000D+00  0.000000D+00  0.100000D+01
     29  0.000000D+00  0.000000D+00  0.000000D+00  0.100000D+01
     30  0.000000D+00  0.000000D+00  0.000000D+00  0.000000D+00  0.100000D+01
     31  0.225890D-01  0.323302D-02 -0.450439D-02 -0.885398D-03  0.685474D-02
     32  0.145916D+00  0.848123D-01 -0.142197D-01 -0.279507D-02  0.216394D-01
     33  0.743429D-03  0.358807D-03 -0.375549D-03  0.245375D-03 -0.759502D-03
     34  0.409943D-01  0.299834D-01 -0.107512D-01  0.702455D-02 -0.217429D-01
     35  0.257257D+00  0.148960D+00  0.672084D-01  0.428932D-01  0.201985D+00
     36  0.357430D+00  0.321383D+00  0.223709D-01  0.142773D-01  0.672325D-01
     37  0.273731D+00  0.259016D+00 -0.176095D+00  0.167061D+00 -0.241872D+00
     38  0.394118D+00  0.390798D+00 -0.397257D-01  0.376877D-01 -0.545647D-01
     39  0.161494D-01  0.231403D-02 -0.657091D-02  0.232499D-02 -0.969250D-02
     40  0.200550D+00  0.695750D-01 -0.622047D-01  0.220099D-01 -0.917559D-01
     41  0.860103D-01  0.275108D-01  0.719595D-01 -0.254614D-01 -0.409823D-01
     42 -0.243390D+00 -0.114688D+00  0.918990D-01 -0.409823D-01  0.135557D+00
     43  0.126871D+00 -0.171604D-03 -0.409823D-01 -0.942501D-02  0.392914D-01
     44  0.278733D+00  0.207290D+00 -0.339310D-01  0.120058D-01 -0.500504D-01
     45  0.120455D+00  0.895806D-01  0.115020D+00 -0.406976D-01 -0.216294D-01
     46 -0.352413D+00 -0.373448D+00  0.300214D-01 -0.216294D-01  0.442835D-01
     47  0.177679D+00  0.791525D-01 -0.216294D-01 -0.234547D-01  0.977789D-01
     48  0.104314D+00  0.267997D-01  0.187708D-01 -0.664167D-02 -0.543033D-01
     49  0.279163D+00  0.134372D+00 -0.128998D+00  0.653112D-01 -0.190281D+00
     50  0.134372D+00  0.247377D-01 -0.474221D-01 -0.288829D-02  0.120409D-01
     51 -0.128998D+00 -0.474221D-01 -0.111512D+00  0.479572D-01  0.790569D-01
     52  0.653112D-01 -0.288829D-02  0.479572D-01  0.705642D-02  0.141386D-01
     53 -0.190281D+00  0.120409D-01  0.790569D-01  0.141386D-01 -0.484938D-01
     54  0.504409D-01  0.504126D-01 -0.470861D-04 -0.134250D-04  0.152394D-04
     55  0.636034D+00  0.636020D+00 -0.235176D-04 -0.670524D-05  0.761149D-05
     56 -0.275577D-02 -0.275562D-02 -0.682601D-02 -0.194620D-02  0.000000D+00
     57 -0.475406D-02  0.312805D-02  0.601322D-02  0.000000D+00 -0.194618D-02
     58  0.891906D-03 -0.135551D-02  0.000000D+00  0.601348D-02 -0.682623D-02
     59  0.670243D+00  0.670240D+00 -0.461430D-05 -0.131561D-05  0.149342D-05
     60 -0.306316D-02 -0.306315D-02 -0.159620D-02 -0.455103D-03  0.000000D+00
     61  0.163400D-02  0.347715D-02  0.140615D-02  0.000000D+00 -0.455101D-03
     62  0.991394D-03  0.465876D-03  0.000000D+00  0.140617D-02 -0.159622D-02
     63  0.333345D+00  0.333332D+00  0.206623D-04  0.589114D-05  0.668778D-05
     64  0.999935D+00  0.333335D+00  0.206621D-04 -0.589156D-05 -0.668729D-05
     65  0.333335D+00  0.999960D+00 -0.206630D-04  0.589130D-05 -0.668754D-05
     66  0.206621D-04 -0.206630D-04  0.999890D+00 -0.115828D-04  0.102037D-04
     67 -0.589156D-05  0.589130D-05 -0.115828D-04  0.999927D+00  0.357891D-04
     68 -0.668729D-05 -0.668754D-05  0.102037D-04  0.357891D-04  0.999918D+00
     69  0.209832D-01  0.296070D-02 -0.433124D-02 -0.843557D-03  0.631934D-02
     70  0.142173D+00  0.820633D-01 -0.144459D-01 -0.281349D-02  0.210767D-01
     71  0.671385D-03  0.311813D-03 -0.328084D-03  0.209697D-03 -0.672995D-03
     72  0.396116D-01  0.284470D-01 -0.101869D-01  0.651103D-02 -0.208964D-01
     73  0.268277D+00  0.152180D+00  0.700658D-01  0.437225D-01  0.205505D+00
     74  0.363042D+00  0.325689D+00  0.225429D-01  0.140672D-01  0.661190D-01
     75  0.260878D+00  0.243611D+00 -0.177238D+00  0.166102D+00 -0.230298D+00
     76  0.386335D+00  0.382255D+00 -0.418713D-01  0.392406D-01 -0.544065D-01
               31            32            33            34            35 
     31  0.100000D+01
     32  0.658292D+00  0.100000D+01
     33  0.139755D-01  0.133524D+00  0.100000D+01
     34  0.133524D+00  0.375087D+00  0.658292D+00  0.100000D+01
     35  0.525102D-05  0.544292D-02  0.290328D-05  0.427879D-02  0.100000D+01
     36  0.544292D-02  0.518618D-01  0.427879D-02  0.446700D-01  0.658292D+00
     37  0.855275D-04  0.169198D-01  0.000000D+00  0.118980D-02  0.502084D-01
     38  0.169198D-01  0.104725D+00  0.118980D-02  0.201752D-01  0.221777D+00
     39  0.353440D-01  0.941669D-01  0.186956D-01  0.789548D-01  0.266780D-05
     40  0.284861D+00  0.484072D+00  0.203803D+00  0.421632D+00  0.175525D-02
     41  0.280128D-01  0.195861D-01 -0.857691D-01 -0.758534D-01  0.206122D-03
     42  0.210426D+00  0.147127D+00  0.177587D+00  0.157056D+00 -0.424189D-02
     43  0.315754D+00  0.220770D+00 -0.218265D+00 -0.193032D+00 -0.279021D-03
     44  0.384055D+00  0.712438D+00  0.329229D+00  0.648989D+00  0.371342D-01
     45  0.380043D-01  0.426809D-01 -0.145631D+00 -0.173885D+00  0.547072D-02
     46  0.285481D+00  0.320610D+00  0.301532D+00  0.360034D+00 -0.112585D+00
     47  0.428377D+00  0.481090D+00 -0.370602D+00 -0.442504D+00 -0.740553D-02
     48  0.125415D+00  0.358162D+00  0.105848D+00  0.314744D+00  0.271211D-03
     49  0.229423D+00  0.382052D+00  0.184208D+00  0.339092D+00  0.344799D-02
     50  0.361951D+00  0.412494D+00  0.236391D+00  0.355305D+00  0.277470D-03
     51  0.244144D-01  0.560801D-02 -0.854924D-01 -0.265634D-01 -0.268003D-03
     52  0.366350D-01  0.841508D-02  0.105076D+00  0.326481D-01 -0.176286D-04
     53  0.275194D+00  0.632123D-01 -0.217561D+00 -0.675987D-01  0.362787D-03
     54  0.468314D-04  0.131556D-01  0.000000D+00  0.277102D-02  0.120891D-01
     55  0.465241D-02  0.938547D-01  0.145465D-03  0.253299D-01  0.137027D+00
     56 -0.122125D-02 -0.106850D-01 -0.987330D-04 -0.744013D-02 -0.351902D-01
     57  0.935237D-02  0.818263D-01  0.304679D-03  0.229594D-01 -0.162635D+00
     58  0.183989D-02  0.160977D-01 -0.198566D-03 -0.149631D-01 -0.104007D+00
     59  0.634028D-01  0.246994D+00  0.127901D-01  0.996476D-01  0.303544D+00
     60 -0.220379D-01 -0.485512D-01 -0.117340D-01 -0.519611D-01 -0.902219D-01
     61  0.168767D+00  0.371807D+00  0.362097D-01  0.160346D+00 -0.416970D+00
     62  0.332016D-01  0.731457D-01 -0.235987D-01 -0.104501D+00 -0.266656D+00
     63  0.273750D-02  0.827411D-01  0.139844D-03  0.236047D-01  0.838620D-01
     64  0.221585D-01  0.144925D+00  0.729193D-03  0.407149D-01  0.258638D+00
     65  0.316528D-02  0.841108D-01  0.350386D-03  0.297172D-01  0.150267D+00
     66 -0.446872D-02 -0.143083D-01 -0.369604D-03 -0.107304D-01  0.687187D-01
     67 -0.879131D-03 -0.281487D-02  0.240879D-03  0.699326D-02  0.439462D-01
     68  0.673243D-02  0.215564D-01 -0.743326D-03 -0.215804D-01  0.203102D+00
     69  0.999394D+00  0.658179D+00  0.142251D-01  0.134474D+00  0.470687D-05
     70  0.658179D+00  0.999895D+00  0.134474D+00  0.376729D+00  0.520637D-02
     71  0.145156D-01  0.135567D+00  0.997645D+00  0.657853D+00  0.233640D-05
     72  0.135567D+00  0.378612D+00  0.657853D+00  0.999591D+00  0.391759D-02
     73  0.572015D-05  0.563543D-02  0.293653D-05  0.429862D-02  0.999376D+00
     74  0.563543D-02  0.529919D-01  0.429862D-02  0.447983D-01  0.658176D+00
     75  0.758572D-04  0.161140D-01  0.000000D+00  0.111406D-02  0.478458D-01
     76  0.161140D-01  0.101609D+00  0.111406D-02  0.193670D-01  0.217624D+00
               36            37            38            39            40 
     36  0.100000D+01
     37  0.221777D+00  0.100000D+01
     38  0.512617D+00  0.658292D+00  0.100000D+01
     39  0.645606D-02  0.120857D-05  0.514544D-02  0.100000D+01
     40  0.587255D-01  0.114232D-02  0.490849D-01  0.219059D+00  0.100000D+01
     41  0.330954D-02  0.919916D-03  0.189274D-01  0.000000D+00  0.000000D+00
     42 -0.681086D-01 -0.236886D-02 -0.487396D-01  0.000000D+00  0.000000D+00
     43 -0.448001D-02  0.130223D-02  0.267936D-01  0.000000D+00  0.000000D+00
     44  0.172316D+00  0.304873D-01  0.152796D+00  0.184261D+00  0.812273D+00
     45  0.154712D-01  0.308683D-01  0.943261D-01  0.000000D+00  0.000000D+00
     46 -0.318389D+00 -0.794883D-01 -0.242897D+00  0.000000D+00  0.000000D+00
     47 -0.209428D-01  0.436971D-01  0.133528D+00  0.000000D+00  0.000000D+00
     48  0.355908D-01  0.368491D-03  0.329200D-01  0.791027D-01  0.710235D+00
     49  0.761771D-01  0.155943D-02  0.539470D-01  0.791027D-01  0.710235D+00
     50  0.356708D-01  0.580816D-03  0.366688D-01  0.791027D-01  0.710235D+00
     51 -0.342399D-02 -0.943308D-03 -0.166548D-01  0.000000D+00  0.000000D+00
     52 -0.225222D-03  0.518564D-03  0.915566D-02  0.000000D+00  0.000000D+00
     53  0.463494D-02 -0.133534D-02 -0.235765D-01  0.000000D+00  0.000000D+00
     54  0.598643D-01  0.282557D-01  0.753040D-01  0.000000D+00  0.556593D-02
     55  0.334525D+00  0.230545D+00  0.405395D+00  0.224050D-02  0.831336D-01
     56 -0.334223D-01  0.132831D+00  0.867933D-01 -0.137560D-02 -0.276256D-01
     57 -0.154465D+00 -0.192605D+00 -0.125851D+00  0.569394D-02  0.114349D+00
     58 -0.987817D-01  0.184030D+00  0.120248D+00 -0.200495D-02 -0.402646D-01
     59  0.597146D+00  0.385145D+00  0.682543D+00  0.394772D-01  0.251870D+00
     60 -0.997012D-01  0.244258D+00  0.242863D+00 -0.223384D-01 -0.105184D+00
     61 -0.460780D+00 -0.354176D+00 -0.352153D+00  0.924641D-01  0.435380D+00
     62 -0.294673D+00  0.338408D+00  0.336475D+00 -0.325585D-01 -0.153306D+00
     63  0.300544D+00  0.197629D+00  0.377787D+00  0.122706D-02  0.588191D-01
     64  0.358306D+00  0.274751D+00  0.395067D+00  0.157805D-01  0.198736D+00
     65  0.322490D+00  0.261947D+00  0.392198D+00  0.224130D-02  0.685699D-01
     66  0.227112D-01 -0.175679D+00 -0.393638D-01 -0.646731D-02 -0.621766D-01
     67  0.145240D-01  0.167858D+00  0.376113D-01  0.227727D-02  0.218936D-01
     68  0.671242D-01 -0.243395D+00 -0.545366D-01 -0.942616D-02 -0.906230D-01
     69  0.520637D-02  0.761698D-04  0.161410D-01  0.341888D-01  0.279957D+00
     70  0.504521D-01  0.161410D-01  0.101714D+00  0.933091D-01  0.480613D+00
     71  0.391759D-02  0.000000D+00  0.112303D-02  0.177668D-01  0.198387D+00
     72  0.422911D-01  0.112303D-02  0.194637D-01  0.778449D-01  0.416977D+00
     73  0.658176D+00  0.535062D-01  0.227373D+00  0.285420D-05  0.182070D-02
     74  0.999892D+00  0.227373D+00  0.520536D+00  0.658212D-02  0.596295D-01
     75  0.217624D+00  0.998379D+00  0.657990D+00  0.000000D+00  0.102751D-02
     76  0.506690D+00  0.657990D+00  0.999719D+00  0.486542D-02  0.469609D-01
               41            42            43            44            45 
     41  0.100000D+01
     42  0.000000D+00  0.100000D+01
     43  0.000000D+00  0.000000D+00  0.100000D+01
     44  0.000000D+00  0.000000D+00  0.000000D+00  0.100000D+01
     45  0.569754D+00  0.000000D+00  0.000000D+00  0.000000D+00  0.100000D+01
     46  0.000000D+00  0.569754D+00  0.000000D+00  0.000000D+00  0.000000D+00
     47  0.000000D+00  0.000000D+00  0.569754D+00  0.000000D+00  0.000000D+00
     48  0.000000D+00  0.000000D+00  0.000000D+00  0.629936D+00  0.000000D+00
     49  0.000000D+00  0.000000D+00  0.000000D+00  0.629936D+00  0.000000D+00
     50  0.000000D+00  0.000000D+00  0.000000D+00  0.629936D+00  0.000000D+00
     51  0.000000D+00  0.000000D+00  0.000000D+00  0.000000D+00  0.000000D+00
     52  0.000000D+00  0.000000D+00  0.000000D+00  0.000000D+00  0.000000D+00
     53  0.000000D+00  0.000000D+00  0.000000D+00  0.000000D+00  0.000000D+00
     54  0.315600D-02 -0.130634D-01  0.459990D-02  0.368889D-01  0.189830D-01
     55  0.319104D-01 -0.132085D+00  0.465097D-01  0.223570D+00  0.957565D-01
     56  0.295825D-01  0.477377D-01 -0.168094D-01 -0.351503D-01  0.117560D+00
     57  0.477377D-01 -0.156482D+00  0.695782D-01  0.145495D+00  0.640455D-01
     58 -0.168094D-01  0.695782D-01  0.166156D-01 -0.512318D-01 -0.225517D-01
     59  0.525081D-01 -0.217343D+00  0.765310D-01  0.450520D+00  0.132581D+00
     60  0.154282D+00  0.951457D-01 -0.335027D-01 -0.118265D+00  0.412791D+00
     61  0.951457D-01 -0.216562D+00  0.138676D+00  0.489527D+00  0.144060D+00
     62 -0.335027D-01  0.138676D+00  0.128438D+00 -0.172372D+00 -0.507264D-01
     63 -0.453444D-02 -0.950559D-01  0.334711D-01  0.200676D+00  0.515154D-01
     64  0.859446D-01 -0.241920D+00  0.125265D+00  0.277539D+00  0.121121D+00
     65  0.273537D-01 -0.113223D+00 -0.211847D-03  0.206033D+00  0.899149D-01
     66  0.705881D-01  0.920311D-01 -0.407917D-01 -0.341563D-01  0.114365D+00
     67 -0.248555D-01 -0.407917D-01 -0.945128D-02  0.120271D-01 -0.402700D-01
     68 -0.407917D-01  0.134136D+00  0.391211D-01 -0.497832D-01 -0.217259D-01
     69  0.237230D-01  0.211760D+00  0.309336D+00  0.380995D+00  0.325702D-01
     70  0.167948D-01  0.149916D+00  0.218996D+00  0.708995D+00  0.366947D-01
     71 -0.799367D-01  0.180321D+00 -0.209752D+00  0.325180D+00 -0.138141D+00
     72 -0.720135D-01  0.162448D+00 -0.188962D+00  0.644143D+00 -0.165756D+00
     73  0.215450D-03 -0.439026D-02 -0.256254D-03  0.377637D-01  0.560495D-02
     74  0.338685D-02 -0.690145D-01 -0.402829D-02  0.174090D+00  0.157464D-01
     75  0.856593D-03 -0.214092D-02  0.117323D-02  0.290403D-01  0.304517D-01
     76  0.187341D-01 -0.468231D-01  0.256591D-01  0.148332D+00  0.948461D-01
               46            47            48            49            50 
     46  0.100000D+01
     47  0.000000D+00  0.100000D+01
     48  0.000000D+00  0.000000D+00  0.100000D+01
     49  0.000000D+00  0.000000D+00  0.333333D+00  0.100000D+01
     50  0.000000D+00  0.000000D+00  0.333333D+00  0.333333D+00  0.100000D+01
     51  0.000000D+00  0.000000D+00  0.000000D+00  0.000000D+00  0.000000D+00
     52  0.000000D+00  0.000000D+00  0.000000D+00  0.000000D+00  0.000000D+00
     53  0.000000D+00  0.000000D+00  0.000000D+00  0.000000D+00  0.000000D+00
     54 -0.785752D-01  0.276679D-01  0.795768D-03  0.111318D-01  0.151609D-02
     55 -0.396359D+00  0.139566D+00  0.322411D-01  0.152566D+00  0.406265D-01
     56  0.640455D-01 -0.225517D-01  0.646613D-02 -0.648593D-01 -0.163376D-01
     57 -0.132067D+00  0.933469D-01  0.525801D-01  0.189123D+00  0.676254D-01
     58  0.933469D-01  0.100163D+00 -0.185145D-01 -0.945330D-01  0.412670D-02
     59 -0.548783D+00  0.193237D+00  0.170504D+00  0.268049D+00  0.177302D+00
     60  0.144060D+00 -0.507264D-01 -0.390225D-01 -0.125527D+00 -0.830300D-01
     61 -0.148703D+00  0.209968D+00  0.330504D+00  0.350604D+00  0.343681D+00
     62  0.209968D+00  0.373660D+00 -0.116377D+00 -0.182956D+00 -0.615155D-01
     63 -0.362503D+00  0.127645D+00  0.285362D-01  0.103540D+00  0.264325D-01
     64 -0.352079D+00  0.176535D+00  0.103540D+00  0.277791D+00  0.132492D+00
     65 -0.372179D+00  0.784913D-01  0.264325D-01  0.132492D+00  0.243454D-01
     66  0.304697D-01 -0.217259D-01  0.185112D-01 -0.129276D+00 -0.471312D-01
     67 -0.217259D-01 -0.235804D-01 -0.651815D-02  0.650081D-01 -0.289156D-02
     68  0.444099D-01  0.976050D-01 -0.536829D-01 -0.188421D+00  0.119688D-01
     69  0.290734D+00  0.424700D+00  0.122298D+00  0.229888D+00  0.353433D+00
     70  0.327551D+00  0.478481D+00  0.355240D+00  0.380353D+00  0.409190D+00
     71  0.311619D+00 -0.362480D+00  0.100574D+00  0.187308D+00  0.225421D+00
     72  0.373912D+00 -0.434940D+00  0.310360D+00  0.337956D+00  0.350082D+00
     73 -0.114213D+00 -0.666648D-02  0.283582D-03  0.358747D-02  0.286890D-03
     74 -0.320868D+00 -0.187287D-01  0.361908D-01  0.772528D-01  0.362319D-01
     75 -0.761093D-01  0.417080D-01  0.337786D-03  0.138523D-02  0.512653D-03
     76 -0.237053D+00  0.129906D+00  0.316281D-01  0.516565D-01  0.349718D-01
               51            52            53            54            55 
     51  0.100000D+01
     52  0.000000D+00  0.100000D+01
     53  0.000000D+00  0.000000D+00  0.100000D+01
     54 -0.459316D-02  0.161734D-02 -0.669457D-02  0.100000D+01
     55 -0.534703D-01  0.188280D-01 -0.779335D-01  0.222216D+00  0.100000D+01
     56 -0.455373D-01  0.160346D-01  0.337814D-01  0.000000D+00  0.000000D+00
     57 -0.793362D-01  0.337814D-01 -0.115633D+00  0.000000D+00  0.000000D+00
     58  0.337814D-01  0.470572D-02 -0.194781D-01  0.000000D+00  0.000000D+00
     59 -0.433474D-01  0.152635D-01 -0.631792D-01  0.171869D+00  0.775507D+00
     60 -0.126042D+00  0.443820D-01  0.295866D-01  0.000000D+00  0.000000D+00
     61 -0.486695D-01  0.295866D-01 -0.709363D-01  0.000000D+00  0.000000D+00
     62  0.295866D-01  0.249367D-01 -0.103219D+00  0.000000D+00  0.000000D+00
     63  0.185112D-01 -0.651815D-02 -0.536829D-01  0.504134D-01  0.636041D+00
     64 -0.129276D+00  0.650081D-01 -0.188421D+00  0.504134D-01  0.636041D+00
     65 -0.471312D-01 -0.289156D-02  0.119688D-01  0.504134D-01  0.636041D+00
     66 -0.109315D+00  0.467311D-01  0.788441D-01  0.000000D+00  0.000000D+00
     67  0.467311D-01  0.694386D-02  0.142233D-01  0.000000D+00  0.000000D+00
     68  0.788441D-01  0.142233D-01 -0.484937D-01  0.000000D+00  0.000000D+00
     69  0.211417D-01  0.308835D-01  0.275678D+00  0.406838D-04  0.426962D-02
     70  0.493474D-02  0.720859D-02  0.643465D-01  0.126574D-01  0.908601D-01
     71 -0.828843D-01  0.964123D-01 -0.217487D+00  0.000000D+00  0.127932D-03
     72 -0.263711D-01  0.306752D-01 -0.691971D-01  0.261565D-02  0.241289D-01
     73 -0.281507D-03 -0.164312D-04  0.334822D-03  0.130412D-01  0.143536D+00
     74 -0.349867D-02 -0.204213D-03  0.416130D-02  0.611069D-01  0.340332D+00
     75 -0.864226D-03  0.473597D-03 -0.118368D-02  0.256150D-01  0.217087D+00
     76 -0.165252D-01  0.905581D-02 -0.226336D-01  0.733403D-01  0.396525D+00
               56            57            58            59            60 
     56  0.100000D+01
     57  0.000000D+00  0.100000D+01
     58  0.000000D+00  0.000000D+00  0.100000D+01
     59  0.000000D+00  0.000000D+00  0.000000D+00  0.100000D+01
     60  0.519296D+00  0.000000D+00  0.000000D+00  0.000000D+00  0.100000D+01
     61  0.000000D+00  0.519296D+00  0.000000D+00  0.000000D+00  0.000000D+00
     62  0.000000D+00  0.000000D+00  0.519296D+00  0.000000D+00  0.000000D+00
     63  0.000000D+00  0.000000D+00  0.000000D+00  0.670250D+00  0.000000D+00
     64  0.000000D+00  0.000000D+00  0.000000D+00  0.670250D+00  0.000000D+00
     65  0.000000D+00  0.000000D+00  0.000000D+00  0.670250D+00  0.000000D+00
     66  0.000000D+00  0.000000D+00  0.000000D+00  0.000000D+00  0.000000D+00
     67  0.000000D+00  0.000000D+00  0.000000D+00  0.000000D+00  0.000000D+00
     68  0.000000D+00  0.000000D+00  0.000000D+00  0.000000D+00  0.000000D+00
     69 -0.116528D-02  0.863909D-02  0.168402D-02  0.609304D-01 -0.220457D-01
     70 -0.107611D-01  0.797797D-01  0.155514D-01  0.241499D+00 -0.494222D-01
     71 -0.850542D-04  0.272108D-03 -0.173483D-03  0.120553D-01 -0.108353D-01
     72 -0.693806D-02  0.221965D-01 -0.141514D-01  0.963521D-01 -0.492300D-01
     73 -0.368644D-01 -0.170040D+00 -0.106321D+00  0.310081D+00 -0.918104D-01
     74 -0.338845D-01 -0.156295D+00 -0.977270D-01  0.604335D+00 -0.100503D+00
     75  0.131879D+00 -0.183067D+00  0.172776D+00  0.374723D+00  0.252230D+00
     76  0.900580D-01 -0.125014D+00  0.117986D+00  0.672118D+00  0.253863D+00
               61            62            63            64            65 
     61  0.100000D+01
     62  0.000000D+00  0.100000D+01
     63  0.000000D+00  0.000000D+00  0.100000D+01
     64  0.000000D+00  0.000000D+00  0.333333D+00  0.100000D+01
     65  0.000000D+00  0.000000D+00  0.333333D+00  0.333333D+00  0.100000D+01
     66  0.000000D+00  0.000000D+00  0.000000D+00  0.000000D+00  0.000000D+00
     67  0.000000D+00  0.000000D+00  0.000000D+00  0.000000D+00  0.000000D+00
     68  0.000000D+00  0.000000D+00  0.000000D+00  0.000000D+00  0.000000D+00
     69  0.163441D+00  0.318595D-01  0.253402D-02  0.205781D-01  0.289798D-02
     70  0.366402D+00  0.714228D-01  0.801458D-01  0.141194D+00  0.813772D-01
     71  0.346647D-01 -0.221005D-01  0.120301D-03  0.658351D-03  0.304424D-03
     72  0.157499D+00 -0.100414D+00  0.223935D-01  0.393382D-01  0.281920D-01
     73 -0.423482D+00 -0.264792D+00  0.878798D-01  0.269689D+00  0.153500D+00
     74 -0.463577D+00 -0.289862D+00  0.305838D+00  0.363920D+00  0.326801D+00
     75 -0.350132D+00  0.330449D+00  0.193723D+00  0.261949D+00  0.246451D+00
     76 -0.352399D+00  0.332588D+00  0.371305D+00  0.387311D+00  0.383675D+00
               66            67            68            69            70 
     66  0.100000D+01
     67  0.000000D+00  0.100000D+01
     68  0.000000D+00  0.000000D+00  0.100000D+01
     69 -0.429371D-02 -0.836972D-03  0.620508D-02  0.100000D+01
     70 -0.145269D-01 -0.283173D-02  0.209937D-01  0.658292D+00  0.100000D+01
     71 -0.322840D-03  0.205827D-03 -0.658489D-03  0.147881D-01  0.136580D+00
     72 -0.101671D-01  0.648207D-02 -0.207377D-01  0.136580D+00  0.380353D+00
     73  0.716374D-01  0.447929D-01  0.206611D+00  0.512827D-05  0.539088D-02
     74  0.228858D-01  0.143099D-01  0.660054D-01  0.539088D-02  0.515537D-01
     75 -0.176968D+00  0.167019D+00 -0.231847D+00  0.674824D-04  0.153654D-01
     76 -0.415156D-01  0.391818D-01 -0.543900D-01  0.153654D-01  0.986598D-01
               71            72            73            74            75 
     71  0.100000D+01
     72  0.658292D+00  0.100000D+01
     73  0.236520D-05  0.393712D-02  0.100000D+01
     74  0.393712D-02  0.424218D-01  0.658292D+00  0.100000D+01
     75  0.000000D+00  0.105159D-02  0.509851D-01  0.223116D+00  0.100000D+01
     76  0.105159D-02  0.186845D-01  0.223116D+00  0.514518D+00  0.658292D+00
               76 
     76  0.100000D+01
 *** Kinetic Energy *** 
                1             2             3             4             5 
      1  0.162076D+02
      2 -0.124757D+01  0.932246D+00
      3  0.000000D+00  0.000000D+00  0.217833D+01
      4  0.000000D+00  0.000000D+00  0.000000D+00  0.217833D+01
      5  0.000000D+00  0.000000D+00  0.000000D+00  0.000000D+00  0.217833D+01
      6  0.899505D-01  0.306718D+00  0.000000D+00  0.000000D+00  0.000000D+00
      7  0.000000D+00  0.000000D+00  0.376673D+00  0.000000D+00  0.000000D+00
      8  0.000000D+00  0.000000D+00  0.000000D+00  0.376673D+00  0.000000D+00
      9  0.000000D+00  0.000000D+00  0.000000D+00  0.000000D+00  0.376673D+00
     10 -0.524817D+00  0.520042D+00  0.000000D+00  0.000000D+00  0.000000D+00
     11 -0.524817D+00  0.520042D+00  0.000000D+00  0.000000D+00  0.000000D+00
     12 -0.524817D+00  0.520042D+00  0.000000D+00  0.000000D+00  0.000000D+00
     13  0.000000D+00  0.000000D+00  0.000000D+00  0.000000D+00  0.000000D+00
     14  0.000000D+00  0.000000D+00  0.000000D+00  0.000000D+00  0.000000D+00
     15  0.000000D+00  0.000000D+00  0.000000D+00  0.000000D+00  0.000000D+00
     16 -0.167287D-05 -0.155601D-01 -0.544839D-02  0.228360D-01 -0.801289D-02
     17 -0.122674D-01 -0.523823D-01 -0.447450D-02  0.187541D-01 -0.658060D-02
     18  0.558462D-02  0.207229D-02 -0.152206D-01  0.165824D-01 -0.581857D-02
     19 -0.234069D-01 -0.868563D-02  0.165824D-01 -0.807663D-01  0.243875D-01
     20  0.821323D-02  0.304769D-02 -0.581857D-02  0.243875D-01 -0.198215D-01
     21 -0.281882D-02  0.211195D-01  0.197710D-01 -0.828666D-01  0.290770D-01
     22 -0.754796D-02 -0.401700D-01  0.524740D-01  0.653451D-01 -0.229289D-01
     23  0.316359D-01  0.168365D+00  0.653451D-01 -0.205818D+00  0.961023D-01
     24 -0.111007D-01 -0.590776D-01 -0.229289D-01  0.961023D-01  0.343433D-01
     25 -0.684792D-02 -0.542988D-01 -0.199829D-01  0.382890D-01 -0.134352D-01
     26 -0.511818D-01  0.432627D-01  0.546419D-01 -0.183556D+00  0.803612D-01
     27 -0.995992D-02 -0.474506D-01 -0.465851D-02  0.195253D-01 -0.228046D-01
     28  0.194267D-01 -0.427505D-01  0.114278D-01  0.107739D+00 -0.411007D-01
     29 -0.681661D-02  0.150007D-01 -0.400990D-02 -0.411007D-01  0.502751D-02
     30  0.285706D-01 -0.628727D-01 -0.411007D-01  0.158450D+00 -0.210719D-01
     31 -0.349082D-01  0.519350D-01  0.182283D-01  0.144308D+00  0.212820D+00
     32  0.253612D-01  0.118725D+00  0.946870D-02  0.749610D-01  0.110549D+00
     33 -0.302202D-01 -0.826132D-02 -0.356119D-01  0.736703D-01 -0.904219D-01
     34  0.163025D-01  0.870081D-01 -0.350994D-01  0.726102D-01 -0.891208D-01
     35 -0.308397D-04 -0.507100D-02 -0.469372D-03  0.990868D-02  0.679019D-03
     36 -0.368175D-02 -0.161143D-01 -0.155669D-03  0.328624D-02  0.225199D-03
     37 -0.154683D-04 -0.364706D-02 -0.240634D-02  0.620333D-02 -0.340149D-02
     38 -0.331876D-02 -0.157061D-01 -0.177156D-02  0.456694D-02 -0.250420D-02
     39  0.160739D+02 -0.124400D+01 -0.545993D-01  0.102196D+00 -0.104949D+00
     40 -0.124400D+01  0.931734D+00  0.235042D-02 -0.439941D-02  0.451792D-02
     41  0.545993D-01 -0.235042D-02  0.217747D+01  0.316196D-03 -0.324714D-03
     42 -0.102196D+00  0.439941D-02  0.316196D-03  0.217705D+01  0.607784D-03
     43  0.104949D+00 -0.451792D-02 -0.324714D-03  0.607784D-03  0.217702D+01
     44  0.899429D-01  0.306698D+00 -0.954958D-03  0.178745D-02 -0.183560D-02
     45  0.733397D-03  0.192240D-02  0.376646D+00  0.999000D-05 -0.102591D-04
     46 -0.137274D-02 -0.359826D-02  0.999000D-05  0.376633D+00  0.192026D-04
     47  0.140972D-02  0.369519D-02 -0.102591D-04  0.192026D-04  0.376632D+00
     48 -0.524596D+00  0.519933D+00  0.151111D-01  0.589359D-02 -0.605236D-02
     49 -0.524278D+00  0.519919D+00 -0.314973D-02 -0.282824D-01 -0.605435D-02
     50 -0.524254D+00  0.519918D+00 -0.314981D-02  0.589568D-02  0.290441D-01
     51 -0.411379D-03  0.180346D-04 -0.295976D-01  0.158110D-01  0.257808D-05
     52  0.422461D-03 -0.185204D-04  0.303949D-01  0.257808D-05  0.158108D-01
     53 -0.790743D-03  0.346656D-04  0.257808D-05  0.303915D-01 -0.295940D-01
     54 -0.155719D-05 -0.153592D-01 -0.545481D-02  0.226986D-01 -0.792588D-02
     55 -0.120190D-01 -0.524653D-01 -0.472711D-02  0.196705D-01 -0.686853D-02
     56  0.553706D-02  0.232104D-02 -0.153410D-01  0.161146D-01 -0.562690D-02
     57 -0.230408D-01 -0.965834D-02  0.161146D-01 -0.785248D-01  0.234147D-01
     58  0.804538D-02  0.337249D-02 -0.562690D-02  0.234147D-01 -0.196444D-01
     59 -0.293325D-02  0.205081D-01  0.197279D-01 -0.820921D-01  0.286649D-01
     60 -0.748097D-02 -0.401237D-01  0.514977D-01  0.655370D-01 -0.228841D-01
     61  0.311299D-01  0.166963D+00  0.655370D-01 -0.205466D+00  0.952257D-01
     62 -0.108699D-01 -0.583000D-01 -0.228841D-01  0.952257D-01  0.339964D-01
     63 -0.675727D-02 -0.540057D-01 -0.197735D-01  0.383771D-01 -0.134005D-01
     64 -0.506123D-01  0.414249D-01  0.539116D-01 -0.180433D+00  0.783339D-01
     65 -0.974416D-02 -0.475061D-01 -0.492264D-02  0.204841D-01 -0.224831D-01
     66  0.193729D-01 -0.421564D-01  0.101328D-01  0.106917D+00 -0.405236D-01
     67 -0.676462D-02  0.147201D-01 -0.353815D-02 -0.405236D-01  0.501269D-02
     68  0.281490D-01 -0.612536D-01 -0.405236D-01  0.155350D+00 -0.208588D-01
     69 -0.349121D-01  0.479550D-01  0.150376D-01  0.142397D+00  0.204490D+00
     70  0.248553D-01  0.117012D+00  0.803182D-02  0.760567D-01  0.109222D+00
     71 -0.296285D-01 -0.112397D-01 -0.317643D-01  0.715376D-01 -0.831363D-01
     72  0.157295D-01  0.849160D-01 -0.331169D-01  0.745838D-01 -0.866765D-01
     73 -0.327936D-04 -0.522076D-02 -0.486356D-03  0.101641D-01  0.621100D-03
     74 -0.371358D-02 -0.161336D-01 -0.146130D-03  0.305390D-02  0.186615D-03
     75 -0.129532D-04 -0.334816D-02 -0.229508D-02  0.574180D-02 -0.313851D-02
     76 -0.322526D-02 -0.155535D-01 -0.197016D-02  0.492893D-02 -0.269419D-02
                6             7             8             9            10 
      6  0.253072D+00
      7  0.000000D+00  0.421786D+00
      8  0.000000D+00  0.000000D+00  0.421786D+00
      9  0.000000D+00  0.000000D+00  0.000000D+00  0.421786D+00
     10  0.226288D+00  0.000000D+00  0.000000D+00  0.000000D+00  0.173333D+01
     11  0.226288D+00  0.000000D+00  0.000000D+00  0.000000D+00 -0.133333D+00
     12  0.226288D+00  0.000000D+00  0.000000D+00  0.000000D+00 -0.133333D+00
     13  0.000000D+00  0.000000D+00  0.000000D+00  0.000000D+00  0.000000D+00
     14  0.000000D+00  0.000000D+00  0.000000D+00  0.000000D+00  0.000000D+00
     15  0.000000D+00  0.000000D+00  0.000000D+00  0.000000D+00  0.000000D+00
     16  0.178975D-02  0.715530D-02 -0.299902D-01  0.105232D-01 -0.490978D-02
     17  0.233188D-01  0.359438D-01 -0.150652D+00  0.528621D-01 -0.515017D-01
     18 -0.132125D-01  0.410180D-01  0.418046D-01 -0.146688D-01  0.128109D-01
     19  0.553780D-01  0.418046D-01 -0.124224D+00  0.614815D-01 -0.490047D-01
     20 -0.194315D-01 -0.146688D-01  0.614815D-01  0.294189D-01  0.171952D-01
     21  0.621450D-01  0.426732D-01 -0.178857D+00  0.627589D-01 -0.410572D-02
     22 -0.380654D-01  0.129555D+00  0.727349D-01 -0.255219D-01  0.413806D-02
     23  0.159545D+00  0.727349D-01 -0.157946D+00  0.106970D+00  0.104444D+00
     24 -0.559824D-01 -0.255219D-01  0.106970D+00  0.109374D+00 -0.366482D-01
     25  0.108287D-01  0.539419D-02 -0.121519D+00  0.426395D-01 -0.512949D-01
     26  0.614800D-01  0.598916D-01 -0.152115D+00  0.880819D-01 -0.453483D-01
     27  0.143842D-01  0.311618D-01 -0.130609D+00  0.111230D-01 -0.405601D-01
     28 -0.221949D-01  0.721190D-01  0.363114D-01 -0.199124D-01  0.568395D-01
     29  0.778795D-02 -0.253057D-01 -0.199124D-01 -0.134501D-01 -0.199444D-01
     30 -0.326418D-01 -0.199124D-01  0.534027D-01  0.563735D-01  0.331871D-02
     31  0.986328D-01  0.193455D-01  0.153153D+00  0.225863D+00 -0.831910D-01
     32  0.136769D+00  0.146107D-01  0.115669D+00  0.170584D+00  0.724088D-01
     33  0.685734D-01 -0.703104D-01  0.145451D+00 -0.178525D+00 -0.536219D-01
     34  0.112841D+00 -0.592625D-01  0.122596D+00 -0.150473D+00  0.532781D-01
     35 -0.140370D-01 -0.564231D-03  0.119112D-01  0.816246D-03 -0.135355D-02
     36 -0.715450D-02  0.187721D-02 -0.396288D-01 -0.271567D-02 -0.149520D-01
     37 -0.131983D-01 -0.489004D-02  0.126061D-01 -0.691234D-02 -0.159039D-02
     38 -0.931896D-02  0.997137D-02 -0.257053D-01  0.140951D-01 -0.134379D-01
     39  0.899429D-01 -0.733397D-03  0.137274D-02 -0.140972D-02 -0.524596D+00
     40  0.306698D+00 -0.192240D-02  0.359826D-02 -0.369519D-02  0.519933D+00
     41  0.954958D-03  0.376646D+00  0.999000D-05 -0.102591D-04 -0.151111D-01
     42 -0.178745D-02  0.999000D-05  0.376633D+00  0.192026D-04 -0.589359D-02
     43  0.183560D-02 -0.102591D-04  0.192026D-04  0.376632D+00  0.605236D-02
     44  0.253061D+00 -0.106935D-02  0.200157D-02 -0.205548D-02  0.226272D+00
     45  0.106935D-02  0.421767D+00  0.710466D-05 -0.729605D-05  0.597486D-03
     46 -0.200157D-02  0.710466D-05  0.421757D+00  0.136564D-04 -0.314943D-02
     47  0.205548D-02 -0.729605D-05  0.136564D-04  0.421757D+00  0.323427D-02
     48  0.226272D+00 -0.597486D-03  0.314943D-02 -0.323427D-02  0.173291D+01
     49  0.226276D+00 -0.168263D-02  0.111838D-02 -0.323430D-02 -0.133258D+00
     50  0.226276D+00 -0.168263D-02  0.314946D-02 -0.114851D-02 -0.133255D+00
     51 -0.445966D-05 -0.175894D-02  0.939697D-03  0.000000D+00  0.171255D-03
[...]
     40  -0.185243D+01  0.411002D+01 -0.340223D+01 -0.108729D+02 -0.126223D+02
     41   0.361661D+02  0.233066D+02  0.180845D+01 -0.144634D+02  0.125642D+03
     42  -0.636404D+02 -0.369903D+02 -0.389673D+01 -0.400587D+02  0.349931D+02
     43   0.607051D+02  0.565106D+02  0.408280D+01 -0.445507D+02 -0.154184D+02
     44   0.203019D+00  0.159317D+00 -0.197204D-01 -0.746471D+00 -0.267892D+00
     45   0.778111D+00 -0.780136D+01  0.167583D+02 -0.112893D+02  0.163901D+02
     46  -0.128922D+01  0.267807D+01 -0.147894D+01  0.806509D+00 -0.156812D+01
     47   0.205273D+01  0.846834D+01 -0.104289D+02 -0.242519D+02 -0.269202D+02
     48   0.130742D+01  0.521480D+01 -0.422229D+01 -0.648452D+01 -0.898080D+01
     49   0.252774D+01 -0.278404D+01 -0.211294D+01  0.116178D+01 -0.135318D+02
     50   0.288890D+01  0.146746D+01 -0.194661D+01 -0.443218D+01 -0.719025D+01
     51  -0.935893D+01  0.375921D+01  0.722486D+01 -0.597045D+01 -0.195747D+01
     52  -0.935438D+00  0.100648D+01 -0.833958D+00  0.779388D+00  0.520258D+00
     53   0.141825D+01  0.168951D+01 -0.332363D+01 -0.854564D+01 -0.314753D+01
     54   0.103821D+01 -0.490645D+01  0.822398D+00  0.124592D+01  0.152261D+00
     55   0.483760D+01 -0.205343D+02  0.492611D+01  0.606682D+01 -0.165148D+01
     56  -0.278826D+01 -0.409043D+01 -0.815878D+02 -0.308039D+02  0.234908D+02
     57  -0.473673D+00  0.162653D+02  0.979897D+02  0.148234D+02 -0.597164D+01
     58   0.123470D+01 -0.340943D+01  0.305179D+02  0.581326D+01 -0.504261D+01
     59   0.120115D-01 -0.334994D+00  0.824552D-01  0.396676D-01  0.471597D+00
     60   0.212913D+01 -0.451267D+00  0.375545D+01 -0.346691D+01  0.504354D+00
     61   0.684750D+01 -0.857822D+01 -0.757537D+01 -0.541531D+01 -0.118375D+02
     62  -0.444050D+01  0.875933D+01 -0.892686D+01  0.520378D+01 -0.858362D+01
     63   0.217299D+02 -0.543893D+02  0.421453D+01  0.278122D+01 -0.226747D+02
     64  -0.150582D+02  0.168755D+02  0.176656D+02 -0.287795D+02  0.537213D+01
     65   0.135431D+02 -0.226871D+02 -0.752983D+01  0.411731D+02  0.764176D+01
     66  -0.170537D+02 -0.761261D+01  0.185024D+02 -0.112619D+02  0.966096D+00
     67   0.502526D+02 -0.312201D+02 -0.163196D+02  0.267601D+02 -0.730530D+01
     68   0.328733D+02 -0.335058D+02 -0.152632D+02  0.222367D+02 -0.231532D+02
     69   0.108455D+00 -0.351571D+01  0.134855D+01  0.493775D+01  0.472180D+01
     70  -0.318326D+01  0.300086D+02 -0.171564D+02 -0.628620D+02 -0.604530D+02
     71   0.341987D+00  0.894948D+00 -0.272638D+00 -0.769323D+00 -0.460895D+00
     72  -0.145197D+01 -0.261862D+01 -0.393220D+00  0.134792D+02  0.526205D+01
     73   0.244632D+01 -0.309252D+01  0.547873D-01 -0.350662D+01  0.783444D+00
     74  -0.295186D+02  0.665509D+02 -0.366871D+02  0.956047D+02 -0.648569D+01
     75  -0.180376D+01  0.517169D+00  0.721293D+00 -0.951318D+00  0.893010D+00
     76  -0.851451D+01  0.791683D+01 -0.105638D+02  0.717904D+01 -0.743111D+01
                61            62            63            64            65 
      1  -0.160648D+01  0.779034D+00  0.108861D+01 -0.211279D+00  0.225422D+00
      2  -0.124362D+02  0.120231D+02  0.546991D+01 -0.688320D+00 -0.808543D-01
      3  -0.497804D+02  0.483756D+02  0.191665D+02 -0.259178D-01  0.154645D+01
      4   0.765081D+02  0.668659D+02  0.289527D+02  0.433544D+01 -0.799095D+00
      5   0.101232D+03  0.789218D+01  0.287985D+02  0.238888D+01  0.627372D+01
      6   0.273556D+00 -0.194951D+00  0.615338D+00  0.123441D+00 -0.793926D-02
      7  -0.116145D+02  0.979808D+01 -0.685131D+01 -0.419528D+01 -0.113391D+01
      8  -0.193966D+01  0.509831D+01  0.106618D+01  0.156776D+01 -0.303077D+01
      9  -0.139754D+02  0.168805D+02 -0.126823D+01 -0.760269D+00 -0.398841D+01
     10  -0.635760D+01  0.138219D+02 -0.104088D+01  0.150060D+01 -0.604094D+01
     11  -0.952779D+01  0.149587D+02  0.107513D+02  0.923625D+00  0.374041D+00
     12  -0.703876D+01  0.981123D+01 -0.409047D+01  0.254282D+01 -0.431727D+01
     13  -0.437439D+01 -0.232207D+01  0.587732D+01 -0.296323D+01  0.267387D+01
     14   0.537235D+00  0.123167D-01 -0.308303D+01 -0.183368D+00 -0.545348D+00
     15  -0.681068D+01 -0.678822D+01  0.179121D+02  0.594592D+00  0.224696D+01
     16   0.162319D+01  0.378703D+01  0.327933D+01  0.173690D+01 -0.652255D+01
     17   0.794891D+01  0.207426D+02  0.255911D+02  0.126574D+02 -0.416050D+02
     18   0.265391D+01 -0.479985D+02 -0.184692D+02  0.114082D+03 -0.573389D+02
     19  -0.234358D+01 -0.201461D+01 -0.472801D+01  0.705152D+02 -0.926409D+02
     20   0.475362D+01  0.316737D+02 -0.428297D+02  0.110901D+03  0.119713D+03
     21  -0.239334D+00  0.828597D+00 -0.133167D+00 -0.438744D-01  0.107941D+00
     22  -0.606842D+01  0.102158D+02 -0.380123D+01 -0.748627D+01  0.381390D+01
     23  -0.197494D+01  0.839687D+01  0.296442D+01 -0.257969D+01 -0.768407D+01
     24  -0.300042D+00  0.273283D+01  0.141960D+02 -0.277392D+01 -0.731764D+01
     25  -0.142686D+02  0.237310D+02  0.699822D+02  0.250917D+02 -0.115405D+02
     26  -0.674467D+01 -0.312164D+02  0.725432D+02  0.145121D+02 -0.109542D+02
     27   0.350435D+02  0.568554D+02 -0.653142D+02 -0.832936D+01 -0.652319D+02
     28  -0.160454D+02 -0.113955D+02  0.520893D+02  0.119034D+02  0.100370D+02
     29   0.881008D+01  0.944694D+01  0.326669D+01  0.781806D+01 -0.318496D+01
     30  -0.131475D+02  0.192984D+02  0.609081D+02  0.228887D+02  0.166398D+02
     31   0.619151D+01 -0.447801D+01  0.237358D+00 -0.452823D+00  0.133397D+01
     32  -0.600799D+02  0.798319D+02 -0.200714D+02  0.648758D+01 -0.254575D+02
     33  -0.314944D+00  0.557240D+00 -0.745864D+00  0.117183D+00 -0.396299D+00
     34   0.113094D+02 -0.150798D+02 -0.179520D+01 -0.843820D+00  0.488082D+01
     35   0.759398D+00  0.265667D+00 -0.955529D+01 -0.566944D+01  0.137519D+01
     36   0.438778D+01  0.402994D+02  0.497973D+02  0.249770D+02 -0.125516D+01
     37   0.133770D+01  0.743180D+00 -0.366536D+01 -0.154550D+01 -0.447621D+01
     38   0.233555D+01  0.520191D+01  0.963039D+01  0.830952D+01 -0.384898D+01
     39   0.158830D+01 -0.106298D+01 -0.979729D+00  0.196362D+00 -0.152499D+00
     40   0.123929D+02 -0.126701D+02 -0.528422D+01  0.652714D+00  0.245376D+00
     41   0.497798D+02 -0.481297D+02 -0.193546D+02  0.103945D+00 -0.169426D+01
     42  -0.765292D+02 -0.673207D+02 -0.288809D+02 -0.442646D+01  0.873398D+00
     43  -0.101203D+03 -0.761293D+01 -0.292727D+02 -0.235601D+01 -0.641473D+01
     44   0.267717D+00 -0.187111D+00  0.611544D+00  0.123012D+00 -0.930123D-02
     45   0.123952D+02 -0.109049D+02  0.710861D+01  0.416008D+01  0.145763D+01
     46   0.128167D+01 -0.389017D+01 -0.195888D+01 -0.168216D+01  0.291082D+01
     47   0.152509D+02 -0.182847D+02  0.181506D+01  0.830661D+00  0.427118D+01
     48   0.678192D+01 -0.141050D+02  0.798512D+00 -0.148764D+01  0.597535D+01
     49   0.107041D+02 -0.135474D+02 -0.100097D+02 -0.799868D+00 -0.409236D+00
     50   0.520850D+01 -0.972461D+01  0.345541D+01 -0.256228D+01  0.413421D+01
     51   0.344959D+01  0.235507D+01 -0.578966D+01  0.289127D+01 -0.261166D+01
     52  -0.512020D+00 -0.545907D+00  0.270597D+01  0.189694D+00  0.479590D+00
     53   0.698548D+01  0.602116D+01 -0.177509D+02 -0.615717D+00 -0.212095D+01
     54  -0.164247D+01 -0.345301D+01 -0.326355D+01 -0.171340D+01  0.644836D+01
     55  -0.791959D+01 -0.203051D+02 -0.255005D+02 -0.125810D+02  0.413765D+02
     56  -0.259446D+01  0.479033D+02  0.185341D+02 -0.114076D+03  0.572500D+02
     57   0.228422D+01  0.174416D+01  0.510701D+01 -0.704542D+02  0.927287D+02
     58  -0.490273D+01 -0.314110D+02  0.430610D+02 -0.110795D+03 -0.119605D+03
     59  -0.239142D+00  0.830479D+00 -0.129586D+00 -0.424879D-01  0.106556D+00
     60   0.606781D+01 -0.100682D+02  0.446625D+01  0.775795D+01 -0.415412D+01
     61   0.187433D+01 -0.930891D+01 -0.473114D+01  0.194544D+01  0.819889D+01
     62   0.278781D+00 -0.332528D+01 -0.137451D+02  0.282150D+01  0.770446D+01
     63   0.142832D+02 -0.242455D+02 -0.701028D+02 -0.238328D+02  0.108503D+02
     64   0.672923D+01  0.308008D+02 -0.724503D+02 -0.154300D+02  0.122269D+02
     65  -0.350657D+02 -0.570695D+02  0.654795D+02  0.801061D+01  0.648509D+02
     66   0.160259D+02  0.118528D+02 -0.520082D+02 -0.123143D+02 -0.103067D+02
     67  -0.877036D+01 -0.919534D+01 -0.344421D+01 -0.733510D+01  0.408078D+01
     68   0.131622D+02 -0.194026D+02 -0.606631D+02 -0.238851D+02 -0.174223D+02
     69  -0.612647D+01  0.442470D+01 -0.330620D+00  0.408866D+00 -0.129699D+01
     70   0.591852D+02 -0.789133D+02  0.198102D+02 -0.643924D+01  0.251329D+02
     71   0.432634D+00 -0.579596D+00  0.645804D+00 -0.102989D+00  0.390781D+00
     72  -0.105548D+02  0.140489D+02  0.207714D+01  0.878429D+00 -0.468377D+01
     73  -0.765873D+00 -0.370002D+00  0.988134D+01  0.592473D+01 -0.136303D+01
     74  -0.443783D+01 -0.413114D+02 -0.507694D+02 -0.254275D+02  0.144391D+01
     75  -0.114476D+01 -0.745534D+00  0.303356D+01  0.123717D+01  0.398597D+01
     76  -0.223450D+01 -0.505982D+01 -0.954251D+01 -0.812708D+01  0.388420D+01
                66            67            68            69            70 
      1   0.877477D-01 -0.872782D+00 -0.229151D+02 -0.163848D+01 -0.145881D-01
      2  -0.310644D+01  0.396855D+01 -0.234139D+03 -0.229330D+02 -0.549464D+01
      3  -0.315034D+02 -0.593378D+01  0.891317D+00 -0.757699D-01  0.469166D+01
      4  -0.202230D+02  0.424249D+02 -0.297494D+01 -0.659521D+01 -0.501678D+01
      5   0.116027D+02  0.100836D+02  0.787940D+00 -0.139493D+01 -0.269567D+01
      6   0.353511D+00  0.271197D+00 -0.633628D-02  0.122315D+00 -0.672893D+00
      7   0.145911D+03  0.530008D+02 -0.247349D+01  0.336143D+02 -0.166535D+03
      8   0.442327D+01  0.438070D+01  0.453370D+00 -0.194498D+02  0.872225D+02
      9  -0.598617D+02 -0.191293D+02  0.646966D+01  0.261942D+01  0.924323D+01
     10  -0.310011D-01  0.240854D+01  0.704322D+02  0.504667D+01 -0.620019D+01
     11  -0.188726D+02  0.513921D+02  0.687214D+02 -0.676574D+01 -0.110842D+02
     12  -0.139022D+01  0.866400D+01  0.672072D+02  0.209012D+01 -0.700096D+01
     13  -0.797477D+01 -0.363168D+01  0.420171D+01 -0.168320D+00  0.554115D+01
     14  -0.257391D+01  0.318422D+01 -0.352786D+01 -0.165029D+01 -0.447815D+01
     15   0.556765D+01 -0.789944D+01  0.105419D+02  0.106684D+01 -0.877002D+00
     16   0.339687D+01 -0.149165D+02  0.232866D+01 -0.285176D+02 -0.755930D+01
     17   0.287953D+02 -0.115901D+03  0.176448D+02 -0.233251D+03 -0.588148D+02
     18   0.107131D+02  0.212770D+02 -0.287171D+01 -0.230812D+01  0.287722D+01
     19  -0.328107D+02  0.540714D+02 -0.691348D+01 -0.549624D+01 -0.499104D+01
     20   0.438686D+01 -0.480305D+02  0.144135D+01  0.107423D+02 -0.514341D+01
     21  -0.187399D+00  0.259089D+00  0.210998D+00 -0.290566D+00  0.134988D+01
     22   0.493841D+02  0.326789D+02  0.333657D+01 -0.472373D+02  0.204497D+03
     23  -0.422446D+02 -0.227341D+02  0.274721D+01  0.430451D+02 -0.446058D+02
     24  -0.451566D+02 -0.295141D+02 -0.336518D+01  0.663790D+02 -0.202515D+03
     25   0.117555D+02 -0.125511D+02 -0.744914D+01  0.871639D+02  0.486125D+02
     26   0.452280D+02 -0.102643D+03  0.769082D+01  0.119364D+03  0.591981D+02
     27   0.193329D+02 -0.634207D+02 -0.117627D+02  0.122563D+03  0.519962D+02
     28  -0.605870D+01  0.506915D+01  0.106166D+01  0.135407D+02  0.151860D+02
     29   0.107680D+01  0.119041D+02 -0.365731D+01  0.574723D+01 -0.109467D+02
     30  -0.144911D+02  0.675638D+02 -0.410023D+01 -0.277437D+02 -0.190753D+02
     31  -0.872413D+00 -0.105883D+01 -0.317782D+01  0.482342D+00  0.243157D+01
     32   0.172927D+02 -0.130973D+00  0.128091D+02  0.545192D+00  0.457963D+01
     33   0.756787D+00 -0.921707D+00  0.138122D+00  0.708497D-02 -0.582217D-01
     34  -0.208145D+02 -0.741458D+01 -0.176643D+01 -0.225664D+01  0.101008D+02
     35   0.151633D+00  0.263590D+01  0.127951D-01 -0.388204D+01 -0.919349D-01
     36   0.245533D+02  0.146059D+02 -0.104465D+01 -0.149035D+01  0.699409D+01
     37  -0.131128D+01 -0.263675D+01  0.251468D+00  0.181299D+01  0.323475D+00
     38  -0.190083D+02 -0.205018D+02 -0.111054D+01  0.121951D+02 -0.470601D+01
     39   0.605667D-01  0.566838D+00  0.229432D+02  0.169519D+01 -0.462696D-01
     40   0.360108D+01 -0.521689D+01  0.234166D+03  0.232397D+02  0.535667D+01
     41   0.315571D+02  0.603903D+01 -0.228693D+00  0.853792D-01 -0.487556D+01
     42   0.207370D+02 -0.437986D+02  0.178670D+01  0.692476D+01  0.536896D+01
     43  -0.116477D+02 -0.977146D+01  0.468089D+00  0.141623D+01  0.243774D+01
     44   0.349260D+00  0.272461D+00 -0.340129D-02  0.122454D+00 -0.674210D+00
     45  -0.145695D+03 -0.529859D+02  0.214134D+01 -0.335527D+02  0.165893D+03
     46  -0.596963D+01 -0.429849D+01  0.571733D-01  0.192846D+02 -0.865713D+02
     47   0.598570D+02  0.186266D+02 -0.705381D+01 -0.289935D+01 -0.761971D+01
     48   0.120736D+00 -0.221421D+01 -0.704398D+02 -0.506774D+01  0.597172D+01
     49   0.181840D+02 -0.493683D+02 -0.687622D+02  0.623142D+01  0.104849D+02
     50   0.122632D+01 -0.847612D+01 -0.671927D+02 -0.213978D+01  0.679621D+01
     51   0.792980D+01  0.311175D+01 -0.417003D+01  0.321022D+00 -0.540108D+01
     52   0.261975D+01 -0.312552D+01  0.352078D+01  0.158708D+01  0.447379D+01
     53  -0.519347D+01  0.708161D+01 -0.104561D+02 -0.853842D+00  0.973872D+00
     54  -0.372669D+01  0.150138D+02 -0.236436D+01  0.285789D+02  0.723760D+01
     55  -0.293817D+02  0.116223D+03 -0.177356D+02  0.233428D+03  0.577716D+02
     56  -0.105705D+02 -0.216490D+02  0.299271D+01  0.128884D+01 -0.334947D+01
     57   0.332831D+02 -0.545193D+02  0.687447D+01  0.706198D+01  0.551979D+01
     58  -0.467302D+01  0.486298D+02 -0.147720D+01 -0.105788D+02  0.524019D+01
     59  -0.185413D+00  0.258027D+00  0.210903D+00 -0.289876D+00  0.135316D+01
     60  -0.496690D+02 -0.334315D+02 -0.331629D+01  0.475698D+02 -0.203121D+03
     61   0.404555D+02  0.225514D+02 -0.268265D+01 -0.434139D+02  0.444353D+02
     62   0.459652D+02  0.305461D+02  0.340354D+01 -0.668718D+02  0.201882D+03
     63  -0.116329D+02  0.126849D+02  0.739059D+01 -0.870252D+02 -0.490624D+02
     64  -0.445702D+02  0.100945D+03 -0.762529D+01 -0.118956D+03 -0.594179D+02
     65  -0.193932D+02  0.634806D+02  0.117034D+02 -0.122489D+03 -0.525622D+02
     66   0.542192D+01 -0.471177D+01 -0.106546D+01 -0.135399D+02 -0.154969D+02
     67  -0.111233D+01 -0.123600D+02  0.365032D+01 -0.559932D+01  0.106279D+02
     68   0.145309D+02 -0.669520D+02  0.415036D+01  0.275435D+02  0.190863D+02
     69   0.944547D+00  0.104934D+01  0.307457D+01 -0.385965D+00 -0.270493D+01
     70  -0.166863D+02  0.242642D+00 -0.125976D+02 -0.401653D+00 -0.523768D+01
     71  -0.711662D+00  0.113459D+01 -0.153320D+00 -0.627552D-01  0.544422D-01
     72   0.210574D+02  0.704841D+01  0.134162D+01  0.198203D+01 -0.878753D+01
     73  -0.177114D+00 -0.262560D+01 -0.405538D-01  0.405357D+01 -0.913186D-01
     74  -0.249888D+02 -0.145983D+02  0.107541D+01  0.119930D+01 -0.701093D+01
     75   0.118201D+01  0.220171D+01 -0.268894D+00 -0.135389D+01 -0.645506D+00
     76   0.183301D+02  0.200764D+02  0.102581D+01 -0.119623D+02  0.427172D+01
                71            72            73 
      1  -0.217251D+00  0.305935D+00  0.265282D+00
      2  -0.202565D+00  0.197842D+01 -0.317184D+01
      3   0.324731D+01 -0.644844D+00  0.943386D-01
      4   0.665264D+00 -0.386931D+00  0.193660D+01
      5   0.487424D+01 -0.449858D+01  0.194649D+01
      6  -0.220628D+01  0.462490D+01 -0.353612D+01
      7  -0.729727D+02  0.141972D+03 -0.326747D+01
      8   0.220036D+02 -0.160578D+03 -0.104807D+03
      9  -0.159461D+03  0.434762D+03 -0.255538D+03
     10   0.422008D+01 -0.900055D+01 -0.162443D+02
     11   0.490863D+01 -0.599097D+01 -0.789580D+01
     12   0.849793D+01 -0.248356D+01 -0.156914D+02
     13   0.130657D+01 -0.138313D+01 -0.240909D+01
     14   0.125861D+01 -0.182084D+01  0.212936D+01
     15  -0.318403D-01 -0.478900D+00  0.302890D+01
     16  -0.194062D+01 -0.320674D+00  0.120312D+01
     17  -0.181775D+02  0.118287D+00  0.342684D+01
     18  -0.165595D+02 -0.538643D+01 -0.656346D+01
     19  -0.127647D+02  0.633179D+00  0.100515D+02
     20  -0.160601D+02 -0.130327D+02 -0.330849D+01
     21  -0.526614D+00 -0.160016D+01  0.308304D+01
     22  -0.265424D+03 -0.167971D+03 -0.516374D+02
     23  -0.172076D+03  0.170550D+02  0.535073D+03
     24  -0.151931D+03 -0.332489D+03 -0.240363D+03
     25   0.196076D+02  0.514831D+01 -0.449030D+02
     26   0.372412D+01  0.130920D+02 -0.244865D-01
     27   0.147317D+02  0.158140D+02 -0.514574D+02
     28   0.104405D+02 -0.843115D+00 -0.239855D+01
     29   0.736414D+01 -0.426622D+01 -0.102735D+02
     30   0.170912D+02 -0.712055D+01 -0.124074D+02
     31   0.206604D+01 -0.401568D+01  0.157427D+01
     32   0.886517D+02 -0.109773D+03  0.587555D+02
     33   0.745874D+00 -0.570677D+00  0.324254D+00
     34   0.159998D+02 -0.148814D+02  0.325945D+02
     35  -0.214631D+01  0.134690D+01  0.211331D+01
     36  -0.138783D+02  0.583249D+02  0.414429D+02
     37   0.139017D+01  0.232034D+01  0.134117D+01
     38   0.306098D+02  0.402015D+02  0.234568D+02
     39   0.291416D+00 -0.240334D+00 -0.367033D+00
     40   0.298621D+00 -0.156857D+01  0.289958D+01
     41  -0.313100D+01  0.529624D+00 -0.218418D+00
     42  -0.831563D+00  0.561001D+00 -0.136160D+01
     43  -0.470801D+01  0.446587D+01 -0.221324D+01
     44  -0.220472D+01  0.461957D+01 -0.353457D+01
     45   0.726928D+02 -0.140859D+03  0.370080D+01
     46  -0.214274D+02  0.160395D+03  0.105447D+03
     47   0.159046D+03 -0.433454D+03  0.253709D+03
     48  -0.424403D+01  0.923251D+01  0.160874D+02
     49  -0.490848D+01  0.609260D+01  0.746303D+01
     50  -0.834763D+01  0.256223D+01  0.155144D+02
     51  -0.141892D+01  0.139219D+01  0.232617D+01
     52  -0.125650D+01  0.173519D+01 -0.217916D+01
     53  -0.181230D-02  0.615336D+00 -0.295627D+01
     54   0.201761D+01  0.401165D+00 -0.116406D+01
     55   0.184760D+02  0.122325D+00 -0.349335D+01
     56   0.163675D+02  0.539886D+01  0.689889D+01
     57   0.127103D+02 -0.438773D+00 -0.102573D+02
     58   0.161438D+02  0.131871D+02  0.311958D+01
     59  -0.527424D+00 -0.159559D+01  0.307395D+01
     60   0.266124D+03  0.167737D+03  0.505524D+02
     61   0.173262D+03 -0.192085D+02 -0.532481D+03
     62   0.152270D+03  0.330625D+03  0.240909D+03
     63  -0.199431D+02 -0.529651D+01  0.446432D+02
     64  -0.313742D+01 -0.130340D+02 -0.409295D+00
     65  -0.143139D+02 -0.153028D+02  0.513681D+02
     66  -0.103089D+02  0.907875D+00  0.277935D+01
     67  -0.754082D+01  0.403479D+01  0.101605D+02
     68  -0.167379D+02  0.729481D+01  0.123936D+02
     69  -0.223158D+01  0.416752D+01 -0.132043D+01
     70  -0.868582D+02  0.107357D+03 -0.566120D+02
     71  -0.591561D+00  0.155279D+00 -0.290360D+00
     72  -0.143793D+02  0.107415D+02 -0.310948D+02
     73   0.274867D+01 -0.125432D+01 -0.210527D+01
     74   0.150576D+02 -0.593843D+02 -0.424519D+02
     75  -0.144145D+01 -0.254064D+01 -0.185471D+01
     76  -0.303893D+02 -0.394775D+02 -0.237928D+02
 NBasis=    76 RedAO= T EigKep=  1.15D-06  NBF=    76
 NBsUse=    73 1.00D-06 EigRej=  6.01D-07 NBFU=    73
 ExpMin= 1.61D-01 ExpMax= 4.17D+03 ExpMxC= 6.27D+02 IAcc=1 IRadAn=         1 AccDes= 0.00D+00
 Harris functional with IExCor=  205 and IRadAn=       1 diagonalized for initial guess.
 HarFok:  IExCor=  205 AccDes= 0.00D+00 IRadAn=         1 IDoV= 1 UseB2=F ITyADJ=14
 ICtDFT=  3500011 ScaDFX=  1.000000  1.000000  1.000000  1.000000
 Spurious integrated density or basis function:
 NE=   34 NElCor=    0 El error=9.53D-02 rel=2.80D-03 Tolerance=1.00D-03
 Shell     1     absolute error=2.02D-02              Tolerance=1.20D-02
 Shell    15       signed error=2.28D-03              Tolerance=1.00D-01
 Inaccurate quadrature in CalDSu.
 Error termination via Lnk1e in /opt/g09_D01_em64t/g09/l401.exe at Tue Apr 29 21:35:06 2014.
 Job cpu time:       0 days  0 hours  0 minutes  0.7 seconds.
 File lengths (MBytes):  RWF=      5 Int=      0 D2E=      0 Chk=      1 Scr=      1
