 Entering Gaussian System, Link 0=g09
 Input=gaussian.gjf
 Output=gaussian.log
 Initial command:
 /opt//g09/l1.exe /tmp/Gau-28525.inp -scrdir=/tmp/
 Entering Link 1 = /opt//g09/l1.exe PID=     28527.
  
 Copyright (c) 1988,1990,1992,1993,1995,1998,2003,2009, Gaussian, Inc.
                  All Rights Reserved.
  
 This is part of the Gaussian(R) 09 program.  It is based on
 the Gaussian(R) 03 system (copyright 2003, Gaussian, Inc.),
 the Gaussian(R) 98 system (copyright 1998, Gaussian, Inc.),
 the Gaussian(R) 94 system (copyright 1995, Gaussian, Inc.),
 the Gaussian 92(TM) system (copyright 1992, Gaussian, Inc.),
 the Gaussian 90(TM) system (copyright 1990, Gaussian, Inc.),
 the Gaussian 88(TM) system (copyright 1988, Gaussian, Inc.),
 the Gaussian 86(TM) system (copyright 1986, Carnegie Mellon
 University), and the Gaussian 82(TM) system (copyright 1983,
 Carnegie Mellon University). Gaussian is a federally registered
 trademark of Gaussian, Inc.
  
 This software contains proprietary and confidential information,
 including trade secrets, belonging to Gaussian, Inc.
  
 This software is provided under written license and may be
 used, copied, transmitted, or stored only in accord with that
 written license.
  
 The following legend is applicable only to US Government
 contracts under FAR:
  
                    RESTRICTED RIGHTS LEGEND
  
 Use, reproduction and disclosure by the US Government is
 subject to restrictions as set forth in subparagraphs (a)
 and (c) of the Commercial Computer Software - Restricted
 Rights clause in FAR 52.227-19.
  
 Gaussian, Inc.
 340 Quinnipiac St., Bldg. 40, Wallingford CT 06492
  
  
 ---------------------------------------------------------------
 Warning -- This program may not be used in any manner that
 competes with the business of Gaussian, Inc. or will provide
 assistance to any competitor of Gaussian, Inc.  The licensee
 of this program is prohibited from giving any competitor of
 Gaussian, Inc. access to this program.  By using this program,
 the user acknowledges that Gaussian, Inc. is engaged in the
 business of creating and licensing software in the field of
 computational chemistry and represents and warrants to the
 licensee that it is not a competitor of Gaussian, Inc. and that
 it will not use this program in any manner prohibited above.
 ---------------------------------------------------------------
  

 Cite this work as:
 Gaussian 09, Revision A.01,
 M. J. Frisch, G. W. Trucks, H. B. Schlegel, G. E. Scuseria, 
 M. A. Robb, J. R. Cheeseman, G. Scalmani, V. Barone, B. Mennucci, 
 G. A. Petersson, H. Nakatsuji, M. Caricato, X. Li, H. P. Hratchian, 
 A. F. Izmaylov, J. Bloino, G. Zheng, J. L. Sonnenberg, M. Hada, 
 M. Ehara, K. Toyota, R. Fukuda, J. Hasegawa, M. Ishida, T. Nakajima, 
 Y. Honda, O. Kitao, H. Nakai, T. Vreven, J. A. Montgomery, Jr., 
 J. E. Peralta, F. Ogliaro, M. Bearpark, J. J. Heyd, E. Brothers, 
 K. N. Kudin, V. N. Staroverov, R. Kobayashi, J. Normand, 
 K. Raghavachari, A. Rendell, J. C. Burant, S. S. Iyengar, J. Tomasi, 
 M. Cossi, N. Rega, J. M. Millam, M. Klene, J. E. Knox, J. B. Cross, 
 V. Bakken, C. Adamo, J. Jaramillo, R. Gomperts, R. E. Stratmann, 
 O. Yazyev, A. J. Austin, R. Cammi, C. Pomelli, J. W. Ochterski, 
 R. L. Martin, K. Morokuma, V. G. Zakrzewski, G. A. Voth, 
 P. Salvador, J. J. Dannenberg, S. Dapprich, A. D. Daniels, 
 O. Farkas, J. B. Foresman, J. V. Ortiz, J. Cioslowski, 
 and D. J. Fox, Gaussian, Inc., Wallingford CT, 2009.
 
 ******************************************
 Gaussian 09:  EM64L-G09RevA.01  8-May-2009
                 6-Jan-2014 
 ******************************************
 %chk=gaussian.chk
 %mem=1GB
 %nproc=2
 Will use up to    2 processors via shared memory.
 --------------------------------------------------------
 #HF/6-31g* nosymm iop(2/12=3,3/33=1) guess=only pop=full
 --------------------------------------------------------
 1/38=1/1;
 2/12=3,15=1,17=6,18=5,40=1/2;
 3/5=1,6=6,7=1,11=9,16=1,25=1,30=1,33=1,89=1/1,2;
 4//1;
 6/7=3,28=1/1;
 99/5=2/99;
 -------
 [0] [0]
 -------
 Symbolic Z-matrix:
 Charge =  2 Multiplicity = 1
 c                    -0.96917   0.14114   0.08831 
 n                     0.30973  -0.04416  -0.03718 
 h                    -11.45593   0.80366   0.37976 
 h                    -11.2363   2.08119   1.22747 
 h                     0.46771  -1.10078  -0.03571 
 h                     0.73863   0.93513  -0.15033 
 c                    -0.96756   0.14076   0.08809 
 n                     0.30308  -0.04319  -0.03691 
 h                    -11.43608   0.81483   0.39 
 h                    -11.22135   2.06569   1.21485 
 h                     0.46208  -1.10598  -0.03438 
 h                     0.73544   0.94146  -0.14661 
 
                          Input orientation:                          
 ---------------------------------------------------------------------
 Center     Atomic      Atomic             Coordinates (Angstroms)
 Number     Number       Type             X           Y           Z
 ---------------------------------------------------------------------
      1          6           0       -0.969169    0.141140    0.088309
      2          7           0        0.309727   -0.044161   -0.037180
      3          1           0      -11.455927    0.803663    0.379760
      4          1           0      -11.236297    2.081185    1.227474
      5          1           0        0.467706   -1.100778   -0.035706
      6          1           0        0.738634    0.935134   -0.150335
      7          6           0       -0.967558    0.140764    0.088090
      8          7           0        0.303083   -0.043194   -0.036910
      9          1           0      -11.436082    0.814825    0.389996
     10          1           0      -11.221346    2.065694    1.214853
     11          1           0        0.462079   -1.105981   -0.034381
     12          1           0        0.735436    0.941456   -0.146606
 ---------------------------------------------------------------------
                    Distance matrix (angstroms):
                    1          2          3          4          5
     1  C    0.000000
     2  N    1.298330   0.000000
     3  H   10.511706  11.803527   0.000000
     4  H   10.510727  11.807926   1.548844   0.000000
     5  H    1.903247   1.068362  12.081909  12.194433   0.000000
     6  H    1.898412   1.075074  12.206785  12.108294   2.057056
     7  C    0.001669   1.296667  10.513343  10.512395   1.901771
     8  N    1.291620   0.006720  11.796825  11.801226   1.070321
     9  H   10.492908  11.784921   0.024964   1.531323  12.064448
    10  H   10.491908  11.789178   1.531382   0.024956  12.174743
    11  H    1.902323   1.072698  12.077131  12.190254   0.007778
    12  H    1.897727   1.079187  12.203498  12.104110   2.062692
                    6          7          8          9         10
     6  H    0.000000
     7  C    1.897093   0.000000
     8  N    1.076891   1.289958   0.000000
     9  H   12.187294  10.494546  11.778218   0.000000
    10  H   12.090617  10.493575  11.782477   1.513662   0.000000
    11  H    2.063026   1.900850   1.074618  12.059677  12.170559
    12  H    0.008006   1.896412   1.080971  12.183998  12.086443
                   11         12
    11  H    0.000000
    12  H    2.068651   0.000000
 Symmetry turned off by external request.
 Stoichiometry    C2H8N2(2+)
 Framework group  C1[X(C2H8N2)]
 Deg. of freedom    30
 Full point group                 C1      NOp   1
 Rotational constants (GHZ):     75.6330062      1.0107398      0.9997982
 Standard basis: 6-31G(d) (6D, 7F)
                         Coordinates in L301:                         
 ---------------------------------------------------------------------
 Center     Atomic      Atomic             Coordinates (Angstroms)
 Number     Number       Type             X           Y           Z
 ---------------------------------------------------------------------
      1          6           0       -0.969169    0.141140    0.088309
      2          7           0        0.309727   -0.044161   -0.037180
      3          1           0      -11.455927    0.803663    0.379760
      4          1           0      -11.236297    2.081185    1.227474
      5          1           0        0.467706   -1.100778   -0.035706
      6          1           0        0.738634    0.935134   -0.150335
      7          6           0       -0.967558    0.140764    0.088090
      8          7           0        0.303083   -0.043194   -0.036910
      9          1           0      -11.436082    0.814825    0.389996
     10          1           0      -11.221346    2.065694    1.214853
     11          1           0        0.462079   -1.105981   -0.034381
     12          1           0        0.735436    0.941456   -0.146606
 ---------------------------------------------------------------------
 FixB: optimizing general contractions.
 Ernie: Thresh=  0.10000D-02 Tol=  0.10000D-05 Strict=F.
 IA=     1 NL=   1 NS=   0.
 IA=     1 L=0 SC=0 ISt=    0 NBk=    0 NP=    0 IndPr=    0.
 IA=     1 NL=   2 NS=   1.
 IA=     1 L=1 SC=0 ISt=    0 NBk=    0 NP=    0 IndPr=    0.
 IA=     1 NL=   1 NS=   1.
 IA=     1 L=2 SC=2 ISt=    0 NBk=    0 NP=    0 IndPr=    0.
 IA=     2 NL=   1 NS=   0.
 IA=     2 L=0 SC=0 ISt=    0 NBk=    0 NP=    0 IndPr=    0.
 IA=     2 NL=   2 NS=   1.
 IA=     2 L=1 SC=0 ISt=    0 NBk=    0 NP=    0 IndPr=    0.
 IA=     2 NL=   1 NS=   1.
 IA=     2 L=2 SC=2 ISt=    0 NBk=    0 NP=    0 IndPr=    0.
 IA=     3 NL=   2 NS=   1.
 IA=     3 L=0 SC=0 ISt=    0 NBk=    0 NP=    0 IndPr=    0.
 IA=     4 NL=   2 NS=   1.
 IA=     4 L=0 SC=0 ISt=    0 NBk=    0 NP=    0 IndPr=    0.
 IA=     5 NL=   2 NS=   1.
 IA=     5 L=0 SC=0 ISt=    0 NBk=    0 NP=    0 IndPr=    0.
 IA=     6 NL=   2 NS=   1.
 IA=     6 L=0 SC=0 ISt=    0 NBk=    0 NP=    0 IndPr=    0.
 IA=     7 NL=   1 NS=   0.
 IA=     7 L=0 SC=0 ISt=    0 NBk=    0 NP=    0 IndPr=    0.
 IA=     7 NL=   2 NS=   1.
 IA=     7 L=1 SC=0 ISt=    0 NBk=    0 NP=    0 IndPr=    0.
 IA=     7 NL=   1 NS=   1.
 IA=     7 L=2 SC=2 ISt=    0 NBk=    0 NP=    0 IndPr=    0.
 IA=     8 NL=   1 NS=   0.
 IA=     8 L=0 SC=0 ISt=    0 NBk=    0 NP=    0 IndPr=    0.
 IA=     8 NL=   2 NS=   1.
 IA=     8 L=1 SC=0 ISt=    0 NBk=    0 NP=    0 IndPr=    0.
 IA=     8 NL=   1 NS=   1.
 IA=     8 L=2 SC=2 ISt=    0 NBk=    0 NP=    0 IndPr=    0.
 IA=     9 NL=   2 NS=   1.
 IA=     9 L=0 SC=0 ISt=    0 NBk=    0 NP=    0 IndPr=    0.
 IA=    10 NL=   2 NS=   1.
 IA=    10 L=0 SC=0 ISt=    0 NBk=    0 NP=    0 IndPr=    0.
 IA=    11 NL=   2 NS=   1.
 IA=    11 L=0 SC=0 ISt=    0 NBk=    0 NP=    0 IndPr=    0.
 IA=    12 NL=   2 NS=   1.
 IA=    12 L=0 SC=0 ISt=    0 NBk=    0 NP=    0 IndPr=    0.
 LdAtmC:  AtmChg=     6.000000     7.000000     1.000000     1.000000     1.000000
 LdAtmC:  AtmChg=     1.000000     6.000000     7.000000     1.000000     1.000000
 LdAtmC:  AtmChg=     1.000000     1.000000
 AtZEff=     -3.6000000     -4.5500000     -1.0000000     -1.0000000     -1.0000000
 AtZEff=     -1.0000000     -3.6000000     -4.5500000     -1.0000000     -1.0000000
 AtZEff=     -1.0000000     -1.0000000
 Integral buffers will be    131072 words long.
 Raffenetti 1 integral format.
 Two-electron integral symmetry is turned off.
    76 basis functions,   144 primitive gaussians,    76 cartesian basis functions
    16 alpha electrons       16 beta electrons
       nuclear repulsion energy     15565.7307998685 Hartrees.
 NAtoms=   12 NActive=   12 NUniq=   12 SFac= 7.50D-01 NAtFMM=   80 NAOKFM=F Big=F
 NPDir=0 NMtPBC=     1 NCelOv=     1 NCel=       1 NClECP=     1 NCelD=      1
         NCelK=      1 NCelE2=     1 NClLst=     1 CellRange=     0.0.
 One-electron integrals computed using PRISM.
 Entering OneElI...
 Calculate overlap and kinetic energy integrals
    NBasis =  76  MinDer = 0  MaxDer = 0
 Requested accuracy = 0.1000D-12
 PrsmSu:  NPrtUS=   2 ThrOK=T IAlg=1
 PRISM was handed    67073051 working-precision words and   368 shell-pairs
 PRISM was handed    67073051 working-precision words and   368 shell-pairs
 IPart=  1 NShTot=         183 NBatch=          25 AvBLen=         7.3
 IPart=  0 NShTot=         185 NBatch=          26 AvBLen=         7.1
 *** Overlap *** 
                1             2             3             4             5 
      1  0.100000D+01
      2  0.219059D+00  0.100000D+01
      3  0.000000D+00  0.000000D+00  0.100000D+01
      4  0.000000D+00  0.000000D+00  0.000000D+00  0.100000D+01
      5  0.000000D+00  0.000000D+00  0.000000D+00  0.000000D+00  0.100000D+01
      6  0.184261D+00  0.812273D+00  0.000000D+00  0.000000D+00  0.000000D+00
      7  0.000000D+00  0.000000D+00  0.569754D+00  0.000000D+00  0.000000D+00
      8  0.000000D+00  0.000000D+00  0.000000D+00  0.569754D+00  0.000000D+00
      9  0.000000D+00  0.000000D+00  0.000000D+00  0.000000D+00  0.569754D+00
     10  0.791027D-01  0.710235D+00  0.000000D+00  0.000000D+00  0.000000D+00
     11  0.791027D-01  0.710235D+00  0.000000D+00  0.000000D+00  0.000000D+00
     12  0.791027D-01  0.710235D+00  0.000000D+00  0.000000D+00  0.000000D+00
     13  0.000000D+00  0.000000D+00  0.000000D+00  0.000000D+00  0.000000D+00
     14  0.000000D+00  0.000000D+00  0.000000D+00  0.000000D+00  0.000000D+00
     15  0.000000D+00  0.000000D+00  0.000000D+00  0.000000D+00  0.000000D+00
     16  0.202685D-05  0.181042D-01  0.388470D-01 -0.562860D-02 -0.381177D-02
     17  0.104170D-01  0.171035D+00  0.258854D+00 -0.375058D-01 -0.253995D-01
     18 -0.243007D-01 -0.220311D+00 -0.285393D+00  0.547723D-01  0.370926D-01
     19  0.352096D-02  0.319212D-01  0.547723D-01  0.846928D-01 -0.537440D-02
     20  0.238445D-02  0.216175D-01  0.370926D-01 -0.537440D-02  0.889892D-01
     21  0.637107D-01  0.358416D+00  0.285782D+00 -0.414074D-01 -0.280417D-01
     22 -0.135477D+00 -0.561009D+00 -0.214262D+00  0.682533D-01  0.462221D-01
     23  0.196295D-01  0.812855D-01  0.682533D-01  0.246913D+00 -0.669720D-02
     24  0.132934D-01  0.550477D-01  0.462221D-01 -0.669720D-02  0.252267D+00
     25  0.645348D-01  0.355642D+00  0.411282D+00 -0.937442D-01 -0.634850D-01
     26  0.283780D-02  0.112270D+00  0.167036D+00  0.995081D-02 -0.163900D-01
     27  0.212154D-02  0.109445D+00  0.161464D+00 -0.233947D-01  0.728557D-02
     28 -0.158155D-01 -0.623862D-01 -0.934563D-01 -0.186307D+00  0.120724D-01
     29 -0.107105D-01 -0.422489D-01 -0.632899D-01  0.120724D-01 -0.195958D+00
     30  0.155186D-02  0.612151D-02  0.120724D-01  0.182810D-01  0.283927D-01
     31  0.000000D+00  0.000000D+00  0.000000D+00  0.000000D+00  0.000000D+00
     32  0.000000D+00  0.000000D+00  0.000000D+00  0.000000D+00  0.000000D+00
     33  0.000000D+00  0.000000D+00  0.000000D+00  0.000000D+00  0.000000D+00
     34  0.000000D+00  0.000000D+00  0.000000D+00  0.000000D+00  0.000000D+00
     35  0.261391D-03  0.208417D-01  0.309117D-01 -0.267175D-01 -0.266794D-02
     36  0.238144D-01  0.164411D+00  0.116136D+00 -0.100379D+00 -0.100235D-01
     37  0.271008D-03  0.212501D-01  0.374823D-01  0.174263D-01 -0.523766D-02
     38  0.240591D-01  0.165739D+00  0.139188D+00  0.647112D-01 -0.194497D-01
     39  0.999946D+00  0.219063D+00  0.323689D-02 -0.755443D-03 -0.439085D-03
     40  0.219063D+00  0.999997D+00  0.152515D-02 -0.355947D-03 -0.206887D-03
     41 -0.323689D-02 -0.152515D-02  0.999988D+00  0.188587D-05  0.109612D-05
     42  0.755443D-03  0.355947D-03  0.188587D-05  0.999995D+00  0.000000D+00
     43  0.439085D-03  0.206887D-03  0.109612D-05  0.000000D+00  0.999996D+00
     44  0.184261D+00  0.812272D+00  0.712676D-03 -0.166328D-03 -0.966746D-04
     45 -0.444595D-03 -0.151601D-02  0.569752D+00  0.000000D+00  0.000000D+00
     46  0.103762D-03  0.353813D-03  0.000000D+00  0.569753D+00  0.000000D+00
     47  0.603093D-04  0.205646D-03  0.000000D+00  0.000000D+00  0.569754D+00
     48  0.791085D-01  0.710234D+00 -0.145592D-02 -0.367207D-03 -0.213431D-03
     49  0.791025D-01  0.710233D+00  0.157338D-02  0.339793D-03 -0.213429D-03
     50  0.791023D-01  0.710233D+00  0.157338D-02 -0.367204D-03  0.197497D-03
     51 -0.255638D-05  0.000000D+00  0.612272D-03 -0.262346D-02  0.000000D+00
     52 -0.148584D-05  0.000000D+00  0.355870D-03  0.000000D+00 -0.262346D-02
     53  0.000000D+00  0.000000D+00  0.000000D+00  0.355873D-03  0.612277D-03
     54  0.227349D-05  0.186736D-01  0.398761D-01 -0.577756D-02 -0.392472D-02
     55  0.108475D-01  0.174263D+00  0.262811D+00 -0.380781D-01 -0.258667D-01
     56 -0.251842D-01 -0.223505D+00 -0.288033D+00  0.554475D-01  0.376658D-01
     57  0.364888D-02  0.323832D-01  0.554475D-01  0.866262D-01 -0.545731D-02
     58  0.247870D-02  0.219981D-01  0.376658D-01 -0.545731D-02  0.909527D-01
     59  0.645166D-01  0.361748D+00  0.287081D+00 -0.415945D-01 -0.282553D-01
     60 -0.136479D+00 -0.563244D+00 -0.211458D+00  0.682097D-01  0.463352D-01
     61  0.197741D-01  0.816073D-01  0.682097D-01  0.249435D+00 -0.671340D-02
     62  0.134327D-01  0.554362D-01  0.463352D-01 -0.671340D-02  0.254757D+00
     63  0.666326D-01  0.359674D+00  0.413499D+00 -0.946450D-01 -0.642928D-01
     64  0.294307D-02  0.114456D+00  0.169564D+00  0.101663D-01 -0.166890D-01
     65  0.220760D-02  0.111624D+00  0.163979D+00 -0.237585D-01  0.745575D-02
     66 -0.163258D-01 -0.628577D-01 -0.938994D-01 -0.189650D+00  0.122025D-01
     67 -0.110902D-01 -0.426996D-01 -0.637863D-01  0.122025D-01 -0.199324D+00
     68  0.160683D-02  0.618665D-02  0.122025D-01  0.186659D-01  0.288796D-01
     69  0.000000D+00  0.000000D+00  0.000000D+00  0.000000D+00  0.000000D+00
     70  0.000000D+00  0.000000D+00  0.000000D+00  0.000000D+00  0.000000D+00
     71  0.000000D+00  0.000000D+00  0.000000D+00  0.000000D+00  0.000000D+00
     72  0.000000D+00  0.000000D+00  0.000000D+00  0.000000D+00  0.000000D+00
     73  0.263204D-03  0.209192D-01  0.309086D-01 -0.269323D-01 -0.264955D-02
     74  0.238610D-01  0.164665D+00  0.115866D+00 -0.100960D+00 -0.993224D-02
     75  0.272396D-03  0.213085D-01  0.375181D-01  0.176148D-01 -0.517044D-02
     76  0.240939D-01  0.165928D+00  0.139090D+00  0.653033D-01 -0.191683D-01
                6             7             8             9            10 
      6  0.100000D+01
      7  0.000000D+00  0.100000D+01
      8  0.000000D+00  0.000000D+00  0.100000D+01
      9  0.000000D+00  0.000000D+00  0.000000D+00  0.100000D+01
     10  0.629936D+00  0.000000D+00  0.000000D+00  0.000000D+00  0.100000D+01
     11  0.629936D+00  0.000000D+00  0.000000D+00  0.000000D+00  0.333333D+00
     12  0.629936D+00  0.000000D+00  0.000000D+00  0.000000D+00  0.333333D+00
     13  0.000000D+00  0.000000D+00  0.000000D+00  0.000000D+00  0.000000D+00
     14  0.000000D+00  0.000000D+00  0.000000D+00  0.000000D+00  0.000000D+00
     15  0.000000D+00  0.000000D+00  0.000000D+00  0.000000D+00  0.000000D+00
     16  0.543883D-01  0.105158D+00 -0.152366D-01 -0.103184D-01  0.488914D-01
     17  0.308812D+00  0.496557D+00 -0.719470D-01 -0.487235D-01  0.318068D+00
     18 -0.184094D+00 -0.119202D+00  0.441417D-01  0.298934D-01 -0.364933D+00
     19  0.266737D-01  0.441417D-01  0.179055D+00 -0.433131D-02  0.804958D-01
     20  0.180638D-01  0.298934D-01 -0.433131D-02  0.182518D+00  0.545129D-01
     21  0.562514D+00  0.621926D+00 -0.901119D-01 -0.610251D-01  0.371191D+00
     22 -0.554772D+00 -0.545050D-01  0.888717D-01  0.601852D-01 -0.425158D+00
     23  0.803819D-01  0.888717D-01  0.545985D+00 -0.872034D-02  0.946241D-01
     24  0.544358D-01  0.601852D-01 -0.872034D-02  0.552956D+00  0.640808D-01
     25  0.365766D+00  0.411395D+00 -0.868923D-01 -0.588447D-01  0.464688D+00
     26  0.274262D+00  0.449677D+00 -0.378698D-01 -0.441235D-01  0.186891D+00
     27  0.273200D+00  0.447935D+00 -0.649020D-01 -0.254751D-01  0.177853D+00
     28 -0.234563D-01 -0.148294D-01 -0.157509D+00  0.377366D-02 -0.129212D+00
     29 -0.158849D-01 -0.100427D-01  0.377366D-02 -0.160526D+00 -0.875042D-01
     30  0.230159D-02  0.377366D-02  0.154552D-01  0.232589D-01  0.195831D-01
     31  0.000000D+00  0.000000D+00  0.000000D+00  0.000000D+00  0.000000D+00
     32  0.000000D+00  0.000000D+00  0.000000D+00  0.000000D+00  0.000000D+00
     33  0.000000D+00  0.000000D+00  0.000000D+00  0.000000D+00  0.000000D+00
     34  0.000000D+00  0.000000D+00  0.000000D+00  0.000000D+00  0.000000D+00
     35  0.115663D+00  0.207506D+00 -0.179352D+00 -0.179096D-01  0.274933D-01
     36  0.344037D+00  0.375060D+00 -0.324171D+00 -0.323708D-01  0.153027D+00
     37  0.116698D+00  0.248845D+00  0.115693D+00 -0.347729D-01  0.375660D-01
     38  0.345905D+00  0.448198D+00  0.208377D+00 -0.626299D-01  0.172550D+00
     39  0.184261D+00  0.444595D-03 -0.103762D-03 -0.603093D-04  0.791085D-01
     40  0.812272D+00  0.151601D-02 -0.353813D-03 -0.205646D-03  0.710234D+00
     41 -0.712676D-03  0.569752D+00  0.000000D+00  0.000000D+00  0.145592D-02
     42  0.166328D-03  0.000000D+00  0.569753D+00  0.000000D+00  0.367207D-03
     43  0.966746D-04  0.000000D+00  0.000000D+00  0.569754D+00  0.213431D-03
     44  0.999999D+00  0.125085D-02 -0.291930D-03 -0.169678D-03  0.629936D+00
     45 -0.125085D-02  0.999998D+00  0.000000D+00  0.000000D+00 -0.752514D-03
     46  0.291930D-03  0.000000D+00  0.999999D+00  0.000000D+00  0.303738D-03
     47  0.169678D-03  0.000000D+00  0.000000D+00  0.999999D+00  0.176541D-03
     48  0.629936D+00  0.752514D-03 -0.303738D-03 -0.176541D-03  0.999991D+00
     49  0.629935D+00  0.130144D-02 -0.175625D-03 -0.176541D-03  0.333335D+00
     50  0.629935D+00  0.130144D-02 -0.303738D-03 -0.102078D-03  0.333335D+00
     51  0.000000D+00  0.110948D-03 -0.475388D-03  0.000000D+00  0.000000D+00
     52  0.000000D+00  0.644863D-04  0.000000D+00 -0.475388D-03  0.000000D+00
     53  0.000000D+00  0.000000D+00  0.644864D-04  0.110949D-03  0.000000D+00
     54  0.549456D-01  0.105684D+00 -0.153124D-01 -0.104018D-01  0.505694D-01
     55  0.311442D+00  0.498174D+00 -0.721793D-01 -0.490317D-01  0.322808D+00
     56 -0.184743D+00 -0.117067D+00  0.440668D-01  0.299348D-01 -0.367896D+00
     57  0.267670D-01  0.440668D-01  0.180692D+00 -0.433718D-02  0.815002D-01
     58  0.181829D-01  0.299348D-01 -0.433718D-02  0.184130D+00  0.553635D-01
     59  0.565803D+00  0.622312D+00 -0.901655D-01 -0.612498D-01  0.373744D+00
     60 -0.555117D+00 -0.484295D-01  0.884626D-01  0.600930D-01 -0.425047D+00
     61  0.804297D-01  0.884626D-01  0.549312D+00 -0.870675D-02  0.947773D-01
     62  0.546363D-01  0.600930D-01 -0.870675D-02  0.556215D+00  0.643827D-01
     63  0.367965D+00  0.411218D+00 -0.869583D-01 -0.590712D-01  0.465498D+00
     64  0.276623D+00  0.451191D+00 -0.379943D-01 -0.444076D-01  0.189776D+00
     65  0.275568D+00  0.449471D+00 -0.651228D-01 -0.256404D-01  0.180732D+00
     66 -0.234141D-01 -0.144801D-01 -0.158110D+00  0.375878D-02 -0.129355D+00
     67 -0.159053D-01 -0.983642D-02  0.375878D-02 -0.161090D+00 -0.878712D-01
     68  0.230449D-02  0.375878D-02  0.155616D-01  0.233399D-01  0.197573D-01
     69  0.000000D+00  0.000000D+00  0.000000D+00  0.000000D+00  0.000000D+00
     70  0.000000D+00  0.000000D+00  0.000000D+00  0.000000D+00  0.000000D+00
     71  0.000000D+00  0.000000D+00  0.000000D+00  0.000000D+00  0.000000D+00
     72  0.000000D+00  0.000000D+00  0.000000D+00  0.000000D+00  0.000000D+00
     73  0.115860D+00  0.207047D+00 -0.180411D+00 -0.177485D-01  0.274430D-01
     74  0.344394D+00  0.373978D+00 -0.325867D+00 -0.320582D-01  0.152943D+00
     75  0.116845D+00  0.248693D+00  0.116762D+00 -0.342729D-01  0.375710D-01
     76  0.346169D+00  0.447701D+00  0.210197D+00 -0.616986D-01  0.172532D+00
               11            12            13            14            15 
     11  0.100000D+01
     12  0.333333D+00  0.100000D+01
     13  0.000000D+00  0.000000D+00  0.100000D+01
     14  0.000000D+00  0.000000D+00  0.000000D+00  0.100000D+01
     15  0.000000D+00  0.000000D+00  0.000000D+00  0.000000D+00  0.100000D+01
     16  0.179714D-02  0.125041D-02 -0.120722D-01 -0.817547D-02  0.118456D-02
     17  0.677270D-01  0.648208D-01 -0.641727D-01 -0.434587D-01  0.629680D-02
     18 -0.100982D+00 -0.957045D-01  0.926071D-01  0.627149D-01 -0.114339D-01
     19 -0.129887D-01  0.138668D-01  0.148203D+00 -0.114339D-01 -0.145421D-01
     20  0.990861D-02 -0.931397D-02 -0.114339D-01  0.157344D+00 -0.227978D-01
     21  0.247040D+00  0.245599D+00 -0.318251D-01 -0.215525D-01  0.312277D-02
     22 -0.434638D+00 -0.432102D+00  0.273946D-01  0.185520D-01 -0.549415D-02
     23  0.299532D-01  0.626079D-01  0.189262D+00 -0.549415D-02 -0.185709D-01
     24  0.426478D-01  0.200359D-01 -0.549415D-02  0.193655D+00 -0.280589D-01
     25  0.186891D+00  0.177853D+00 -0.129212D+00 -0.875042D-01  0.195831D-01
     26  0.844119D-01  0.344285D-01  0.317315D-01 -0.261635D-01 -0.311358D-02
     27  0.344285D-01  0.873706D-01 -0.367655D-01  0.227544D-01 -0.329692D-02
     28  0.317315D-01 -0.367655D-01 -0.298142D+00  0.219600D-01  0.372201D-01
     29 -0.261635D-01  0.227544D-01  0.219600D-01 -0.315697D+00  0.581968D-01
     30 -0.311358D-02 -0.329692D-02  0.372201D-01  0.581968D-01  0.775279D-01
     31  0.000000D+00  0.000000D+00  0.000000D+00  0.000000D+00  0.000000D+00
     32  0.000000D+00  0.000000D+00  0.000000D+00  0.000000D+00  0.000000D+00
     33  0.000000D+00  0.000000D+00  0.000000D+00  0.000000D+00  0.000000D+00
     34  0.000000D+00  0.000000D+00  0.000000D+00  0.000000D+00  0.000000D+00
     35  0.218575D-01  0.537938D-02 -0.333539D-01 -0.333063D-02  0.287873D-02
     36  0.141987D+00  0.109709D+00 -0.653359D-01 -0.652426D-02  0.563904D-02
     37  0.123032D-01  0.596612D-02  0.259531D-01 -0.780049D-02 -0.362661D-02
     38  0.123796D+00  0.111566D+00  0.500865D-01 -0.150541D-01 -0.699894D-02
     39  0.791025D-01  0.791023D-01 -0.255638D-05 -0.148584D-05  0.000000D+00
     40  0.710233D+00  0.710233D+00  0.000000D+00  0.000000D+00  0.000000D+00
     41 -0.157338D-02 -0.157338D-02 -0.612272D-03 -0.355870D-03  0.000000D+00
     42 -0.339793D-03  0.367204D-03  0.262346D-02  0.000000D+00 -0.355873D-03
     43  0.213429D-03 -0.197497D-03  0.000000D+00  0.262346D-02 -0.612277D-03
     44  0.629935D+00  0.629935D+00  0.000000D+00  0.000000D+00  0.000000D+00
     45 -0.130144D-02 -0.130144D-02 -0.110948D-03 -0.644863D-04  0.000000D+00
     46  0.175625D-03  0.303738D-03  0.475388D-03  0.000000D+00 -0.644864D-04
     47  0.176541D-03  0.102078D-03  0.000000D+00  0.475388D-03 -0.110949D-03
     48  0.333335D+00  0.333335D+00  0.000000D+00  0.000000D+00  0.000000D+00
     49  0.999996D+00  0.333332D+00  0.000000D+00  0.000000D+00  0.000000D+00
     50  0.333332D+00  0.999996D+00  0.000000D+00  0.000000D+00  0.000000D+00
     51  0.000000D+00  0.000000D+00  0.999988D+00  0.000000D+00  0.100639D-05
     52  0.000000D+00  0.000000D+00  0.000000D+00  0.999988D+00  0.173149D-05
     53  0.000000D+00  0.000000D+00  0.100639D-05  0.173149D-05  0.999995D+00
     54  0.186595D-02  0.130353D-02 -0.124844D-01 -0.848068D-02  0.122875D-02
     55  0.693207D-01  0.663935D-01 -0.649775D-01 -0.441395D-01  0.639528D-02
     56 -0.102897D+00 -0.975895D-01  0.933945D-01  0.634433D-01 -0.115955D-01
     57 -0.132880D-01  0.141395D-01  0.151467D+00 -0.115955D-01 -0.149078D-01
     58  0.101274D-01 -0.954896D-02 -0.115955D-01  0.160660D+00 -0.232776D-01
     59  0.249595D+00  0.248161D+00 -0.318238D-01 -0.216180D-01  0.313219D-02
     60 -0.436851D+00 -0.434342D+00  0.269531D-01  0.183094D-01 -0.548209D-02
     61  0.301012D-01  0.629308D-01  0.190332D+00 -0.548209D-02 -0.187331D-01
     62  0.429962D-01  0.202009D-01 -0.548209D-02  0.194679D+00 -0.282066D-01
     63  0.189776D+00  0.180732D+00 -0.129355D+00 -0.878712D-01  0.197573D-01
     64  0.865901D-01  0.352544D-01  0.322274D-01 -0.265995D-01 -0.317192D-02
     65  0.352544D-01  0.895778D-01 -0.372910D-01  0.231598D-01 -0.335557D-02
     66  0.322274D-01 -0.372910D-01 -0.301946D+00  0.220515D-01  0.379185D-01
     67 -0.265995D-01  0.231598D-01  0.220515D-01 -0.319428D+00  0.590514D-01
     68 -0.317192D-02 -0.335557D-02  0.379185D-01  0.590514D-01  0.795825D-01
     69  0.000000D+00  0.000000D+00  0.000000D+00  0.000000D+00  0.000000D+00
     70  0.000000D+00  0.000000D+00  0.000000D+00  0.000000D+00  0.000000D+00
     71  0.000000D+00  0.000000D+00  0.000000D+00  0.000000D+00  0.000000D+00
     72  0.000000D+00  0.000000D+00  0.000000D+00  0.000000D+00  0.000000D+00
     73  0.220970D-01  0.539997D-02 -0.335142D-01 -0.329706D-02  0.287291D-02
     74  0.142501D+00  0.109887D+00 -0.654629D-01 -0.644012D-02  0.561162D-02
     75  0.124560D-01  0.596634D-02  0.261985D-01 -0.768999D-02 -0.361047D-02
     76  0.124165D+00  0.111667D+00  0.504536D-01 -0.148095D-01 -0.695312D-02
               16            17            18            19            20 
     16  0.100000D+01
     17  0.222216D+00  0.100000D+01
     18  0.000000D+00  0.000000D+00  0.100000D+01
     19  0.000000D+00  0.000000D+00  0.000000D+00  0.100000D+01
     20  0.000000D+00  0.000000D+00  0.000000D+00  0.000000D+00  0.100000D+01
     21  0.171869D+00  0.775507D+00  0.000000D+00  0.000000D+00  0.000000D+00
     22  0.000000D+00  0.000000D+00  0.519296D+00  0.000000D+00  0.000000D+00
     23  0.000000D+00  0.000000D+00  0.000000D+00  0.519296D+00  0.000000D+00
     24  0.000000D+00  0.000000D+00  0.000000D+00  0.000000D+00  0.519296D+00
     25  0.504134D-01  0.636041D+00  0.000000D+00  0.000000D+00  0.000000D+00
     26  0.504134D-01  0.636041D+00  0.000000D+00  0.000000D+00  0.000000D+00
     27  0.504134D-01  0.636041D+00  0.000000D+00  0.000000D+00  0.000000D+00
     28  0.000000D+00  0.000000D+00  0.000000D+00  0.000000D+00  0.000000D+00
     29  0.000000D+00  0.000000D+00  0.000000D+00  0.000000D+00  0.000000D+00
     30  0.000000D+00  0.000000D+00  0.000000D+00  0.000000D+00  0.000000D+00
     31  0.000000D+00  0.000000D+00  0.000000D+00  0.000000D+00  0.000000D+00
     32  0.000000D+00  0.000000D+00  0.000000D+00  0.000000D+00  0.000000D+00
     33  0.000000D+00  0.000000D+00  0.000000D+00  0.000000D+00  0.000000D+00
     34  0.000000D+00  0.000000D+00  0.000000D+00  0.000000D+00  0.000000D+00
     35  0.272932D-01  0.225700D+00  0.433042D-01 -0.289633D+00  0.404154D-03
     36  0.746048D-01  0.402241D+00  0.287407D-01 -0.192228D+00  0.268234D-03
     37  0.264867D-01  0.221587D+00  0.115190D+00  0.263006D+00 -0.303895D-01
     38  0.740045D-01  0.399530D+00  0.774890D-01  0.176925D+00 -0.204432D-01
     39  0.208545D-05  0.105223D-01 -0.245178D-01  0.354968D-02  0.240459D-02
     40  0.182439D-01  0.171831D+00 -0.221107D+00  0.320118D-01  0.216851D-01
     41  0.391011D-01  0.259839D+00 -0.286071D+00  0.549005D-01  0.371901D-01
     42 -0.566106D-02 -0.376195D-01  0.549005D-01  0.851802D-01 -0.538439D-02
     43 -0.383486D-02 -0.254838D-01  0.371901D-01 -0.538439D-02  0.894813D-01
     44  0.545261D-01  0.309463D+00 -0.184261D+00  0.266773D-01  0.180714D-01
     45  0.105292D+00  0.496974D+00 -0.118693D+00  0.440922D-01  0.298685D-01
     46 -0.152442D-01 -0.719519D-01  0.440922D-01  0.179470D+00 -0.432436D-02
     47 -0.103266D-01 -0.487409D-01  0.298685D-01 -0.432436D-02  0.182924D+00
     48  0.493057D-01  0.319255D+00 -0.365708D+00  0.806890D-01  0.546595D-01
     49  0.181249D-02  0.681113D-01 -0.101443D+00 -0.130549D-01  0.994903D-02
     50  0.126226D-02  0.652017D-01 -0.961612D-01  0.139222D-01 -0.936147D-02
     51 -0.121647D-01 -0.643267D-01  0.927415D-01  0.149036D+00 -0.114519D-01
     52 -0.824048D-02 -0.435755D-01  0.628240D-01 -0.114519D-01  0.158184D+00
     53  0.119306D-02  0.630886D-02 -0.114519D-01 -0.146168D-01 -0.229019D-01
     54  0.998799D+00  0.222311D+00 -0.161583D-01  0.235301D-02  0.656586D-03
     55  0.222311D+00  0.999929D+00 -0.739665D-02  0.107711D-02  0.300559D-03
     56  0.161583D-01  0.739665D-02  0.999701D+00  0.287617D-04  0.802570D-05
     57 -0.235301D-02 -0.107711D-02  0.287617D-04  0.999895D+00 -0.116872D-05
     58 -0.656586D-03 -0.300559D-03  0.802570D-05 -0.116872D-05  0.999899D+00
     59  0.171863D+00  0.775486D+00 -0.300241D-02  0.437218D-03  0.122002D-03
     60  0.192322D-02  0.689546D-02  0.519253D+00  0.405865D-05  0.113253D-05
     61 -0.280064D-03 -0.100413D-02  0.405865D-05  0.519281D+00  0.000000D+00
     62 -0.781492D-04 -0.280193D-03  0.113253D-05  0.000000D+00  0.519281D+00
     63  0.505035D-01  0.636050D+00  0.837558D-02  0.802728D-03  0.223994D-03
     64  0.504098D-01  0.636003D+00 -0.551141D-02 -0.121982D-02  0.223953D-03
     65  0.504079D-01  0.636002D+00 -0.551139D-02  0.802579D-03 -0.340379D-03
     66 -0.241633D-04 -0.120690D-04 -0.175119D-02  0.120273D-01  0.000000D+00
     67 -0.674254D-05 -0.336774D-05 -0.488653D-03  0.000000D+00  0.120273D-01
     68  0.000000D+00  0.000000D+00  0.000000D+00 -0.488724D-03 -0.175145D-02
     69  0.000000D+00  0.000000D+00  0.000000D+00  0.000000D+00  0.000000D+00
     70  0.000000D+00  0.000000D+00  0.000000D+00  0.000000D+00  0.000000D+00
     71  0.000000D+00  0.000000D+00  0.000000D+00  0.000000D+00  0.000000D+00
     72  0.000000D+00  0.000000D+00  0.000000D+00  0.000000D+00  0.000000D+00
     73  0.267700D-01  0.223037D+00  0.412142D-01 -0.287244D+00  0.757268D-03
     74  0.742169D-01  0.400489D+00  0.275928D-01 -0.192309D+00  0.506989D-03
     75  0.260020D-01  0.219092D+00  0.112902D+00  0.261395D+00 -0.290208D-01
     76  0.736373D-01  0.397869D+00  0.765822D-01  0.177306D+00 -0.196850D-01
               21            22            23            24            25 
     21  0.100000D+01
     22  0.000000D+00  0.100000D+01
     23  0.000000D+00  0.000000D+00  0.100000D+01
     24  0.000000D+00  0.000000D+00  0.000000D+00  0.100000D+01
     25  0.670250D+00  0.000000D+00  0.000000D+00  0.000000D+00  0.100000D+01
     26  0.670250D+00  0.000000D+00  0.000000D+00  0.000000D+00  0.333333D+00
     27  0.670250D+00  0.000000D+00  0.000000D+00  0.000000D+00  0.333333D+00
     28  0.000000D+00  0.000000D+00  0.000000D+00  0.000000D+00  0.000000D+00
     29  0.000000D+00  0.000000D+00  0.000000D+00  0.000000D+00  0.000000D+00
     30  0.000000D+00  0.000000D+00  0.000000D+00  0.000000D+00  0.000000D+00
     31  0.000000D+00  0.000000D+00  0.000000D+00  0.000000D+00  0.000000D+00
     32  0.000000D+00  0.000000D+00  0.000000D+00  0.000000D+00  0.000000D+00
     33  0.000000D+00  0.000000D+00  0.000000D+00  0.000000D+00  0.000000D+00
     34  0.000000D+00  0.000000D+00  0.000000D+00  0.000000D+00  0.000000D+00
     35  0.381433D+00  0.807464D-01 -0.540060D+00  0.753598D-03  0.132564D+00
     36  0.678844D+00  0.806313D-01 -0.539290D+00  0.752523D-03  0.360974D+00
     37  0.378247D+00  0.217384D+00  0.496337D+00 -0.573503D-01  0.177565D+00
     38  0.675657D+00  0.217883D+00  0.497479D+00 -0.574822D-01  0.369457D+00
     39  0.639098D-01 -0.135729D+00  0.196509D-01  0.133117D-01  0.650533D-01
     40  0.359240D+00 -0.561581D+00  0.813057D-01  0.550773D-01  0.356654D+00
     41  0.286113D+00 -0.213598D+00  0.681947D-01  0.461958D-01  0.411876D+00
     42 -0.414234D-01  0.681947D-01  0.247551D+00 -0.668823D-02 -0.939025D-01
     43 -0.280606D-01  0.461958D-01 -0.668823D-02  0.252894D+00 -0.636104D-01
     44  0.563329D+00 -0.554876D+00  0.803349D-01  0.544196D-01  0.366316D+00
     45  0.622042D+00 -0.530369D-01  0.887079D-01  0.600916D-01  0.411373D+00
     46 -0.900592D-01  0.887079D-01  0.546828D+00 -0.870006D-02 -0.868463D-01
     47 -0.610070D-01  0.600916D-01 -0.870006D-02  0.553778D+00 -0.588306D-01
     48  0.371831D+00 -0.425158D+00  0.945946D-01  0.640793D-01  0.464955D+00
     49  0.247668D+00 -0.435193D+00  0.299669D-01  0.426817D-01  0.187588D+00
     50  0.246229D+00 -0.432665D+00  0.626413D-01  0.200520D-01  0.178554D+00
     51 -0.318025D-01  0.272686D-01  0.189545D+00 -0.548068D-02 -0.129168D+00
     52 -0.215433D-01  0.184720D-01 -0.548068D-02  0.193923D+00 -0.874996D-01
     53  0.311905D-02 -0.548068D-02 -0.185897D-01 -0.280762D-01  0.195891D-01
     54  0.171863D+00 -0.192322D-02  0.280064D-03  0.781492D-04  0.505035D-01
     55  0.775486D+00 -0.689546D-02  0.100413D-02  0.280193D-03  0.636050D+00
     56  0.300241D-02  0.519253D+00  0.405865D-05  0.113253D-05 -0.837558D-02
     57 -0.437218D-03  0.405865D-05  0.519281D+00  0.000000D+00 -0.802728D-03
     58 -0.122002D-03  0.113253D-05  0.000000D+00  0.519281D+00 -0.223994D-03
     59  0.999983D+00 -0.578177D-02  0.841952D-03  0.234939D-03  0.670242D+00
     60  0.578177D-02  0.999949D+00  0.486805D-05  0.135839D-05  0.287910D-02
     61 -0.841952D-03  0.486805D-05  0.999982D+00  0.000000D+00 -0.892180D-03
     62 -0.234939D-03  0.135839D-05  0.000000D+00  0.999983D+00 -0.248955D-03
     63  0.670242D+00 -0.287910D-02  0.892180D-03  0.248955D-03  0.999851D+00
     64  0.670232D+00 -0.612660D-02  0.419249D-03  0.248951D-03  0.333355D+00
     65  0.670232D+00 -0.612660D-02  0.892167D-03  0.116987D-03  0.333354D+00
     66 -0.236802D-05 -0.409538D-03  0.281248D-02  0.000000D+00  0.106025D-04
     67  0.000000D+00 -0.114278D-03  0.000000D+00  0.281248D-02  0.295854D-05
     68  0.000000D+00  0.000000D+00 -0.114284D-03 -0.409560D-03  0.000000D+00
     69  0.000000D+00  0.000000D+00  0.000000D+00  0.000000D+00  0.000000D+00
     70  0.000000D+00  0.000000D+00  0.000000D+00  0.000000D+00  0.000000D+00
     71  0.000000D+00  0.000000D+00  0.000000D+00  0.000000D+00  0.000000D+00
     72  0.000000D+00  0.000000D+00  0.000000D+00  0.000000D+00  0.000000D+00
     73  0.379374D+00  0.774477D-01 -0.539775D+00  0.142302D-02  0.130442D+00
     74  0.676786D+00  0.775233D-01 -0.540302D+00  0.142441D-02  0.359251D+00
     75  0.376298D+00  0.214645D+00  0.496955D+00 -0.551734D-01  0.174655D+00
     76  0.673702D+00  0.215633D+00  0.499241D+00 -0.554273D-01  0.367704D+00
               26            27            28            29            30 
     26  0.100000D+01
     27  0.333333D+00  0.100000D+01
     28  0.000000D+00  0.000000D+00  0.100000D+01
     29  0.000000D+00  0.000000D+00  0.000000D+00  0.100000D+01
     30  0.000000D+00  0.000000D+00  0.000000D+00  0.000000D+00  0.100000D+01
     31  0.000000D+00  0.000000D+00  0.000000D+00  0.000000D+00  0.000000D+00
     32  0.000000D+00  0.000000D+00  0.000000D+00  0.000000D+00  0.000000D+00
     33  0.000000D+00  0.000000D+00  0.000000D+00  0.000000D+00  0.000000D+00
     34  0.000000D+00  0.000000D+00  0.000000D+00  0.000000D+00  0.000000D+00
     35  0.465299D+00  0.124957D+00 -0.881370D-01  0.122986D-03 -0.822574D-03
     36  0.436750D+00  0.359242D+00 -0.200720D-01  0.280085D-04 -0.187330D-03
     37  0.408944D+00  0.126469D+00  0.217184D+00 -0.250950D-01 -0.572977D-01
     38  0.422895D+00  0.357656D+00  0.501600D-01 -0.579584D-02 -0.132332D-01
     39  0.286161D-02  0.214110D-02 -0.159295D-01 -0.107908D-01  0.156229D-02
     40  0.112801D+00  0.109976D+00 -0.624594D-01 -0.423106D-01  0.612573D-02
     41  0.167650D+00  0.162078D+00 -0.935055D-01 -0.633415D-01  0.120814D-01
     42  0.999871D-02 -0.234656D-01 -0.187163D+00  0.120814D-01  0.183561D-01
     43 -0.164423D-01  0.731968D-02  0.120814D-01 -0.196814D+00  0.284947D-01
     44  0.274843D+00  0.273784D+00 -0.234294D-01 -0.158713D-01  0.229785D-02
     45  0.450062D+00  0.448327D+00 -0.147342D-01 -0.998112D-02  0.376277D-02
     46 -0.378722D-01 -0.649087D-01 -0.157671D+00  0.376277D-02  0.154637D-01
     47 -0.441400D-01 -0.254848D-01  0.376277D-02 -0.160677D+00  0.232628D-01
     48  0.187588D+00  0.178554D+00 -0.129168D+00 -0.874996D-01  0.195891D-01
     49  0.849553D-01  0.346235D-01  0.318367D-01 -0.262367D-01 -0.312239D-02
     50  0.346235D-01  0.879197D-01 -0.368656D-01  0.228300D-01 -0.330533D-02
     51  0.318367D-01 -0.368656D-01 -0.299155D+00  0.219420D-01  0.373542D-01
     52 -0.262367D-01  0.228300D-01  0.219420D-01 -0.316682D+00  0.583735D-01
     53 -0.312239D-02 -0.330533D-02  0.373542D-01  0.583735D-01  0.780543D-01
     54  0.504098D-01  0.504079D-01 -0.241633D-04 -0.674254D-05  0.000000D+00
     55  0.636003D+00  0.636002D+00 -0.120690D-04 -0.336774D-05  0.000000D+00
     56  0.551141D-02  0.551139D-02  0.175119D-02  0.488653D-03  0.000000D+00
     57  0.121982D-02 -0.802579D-03 -0.120273D-01  0.000000D+00  0.488724D-03
     58 -0.223953D-03  0.340379D-03  0.000000D+00 -0.120273D-01  0.175145D-02
     59  0.670232D+00  0.670232D+00 -0.236802D-05  0.000000D+00  0.000000D+00
     60  0.612660D-02  0.612660D-02  0.409538D-03  0.114278D-03  0.000000D+00
     61 -0.419249D-03 -0.892167D-03 -0.281248D-02  0.000000D+00  0.114284D-03
     62 -0.248951D-03 -0.116987D-03  0.000000D+00 -0.281248D-02  0.409560D-03
     63  0.333355D+00  0.333354D+00  0.106025D-04  0.295854D-05  0.000000D+00
     64  0.999934D+00  0.333313D+00  0.106038D-04 -0.295892D-05  0.000000D+00
     65  0.333313D+00  0.999935D+00 -0.106039D-04  0.295891D-05  0.000000D+00
     66  0.106038D-04 -0.106039D-04  0.999807D+00  0.000000D+00  0.512497D-05
     67 -0.295892D-05  0.295891D-05  0.000000D+00  0.999809D+00  0.183664D-04
     68  0.000000D+00  0.000000D+00  0.512497D-05  0.183664D-04  0.999933D+00
     69  0.000000D+00  0.000000D+00  0.000000D+00  0.000000D+00  0.000000D+00
     70  0.000000D+00  0.000000D+00  0.000000D+00  0.000000D+00  0.000000D+00
     71  0.000000D+00  0.000000D+00  0.000000D+00  0.000000D+00  0.000000D+00
     72  0.000000D+00  0.000000D+00  0.000000D+00  0.000000D+00  0.000000D+00
     73  0.462552D+00  0.123463D+00 -0.842698D-01  0.222162D-03 -0.154837D-02
     74  0.435573D+00  0.357648D+00 -0.193660D-01  0.510551D-04 -0.355831D-03
     75  0.407541D+00  0.124774D+00  0.214181D+00 -0.237790D-01 -0.550540D-01
     76  0.421956D+00  0.356084D+00  0.498950D-01 -0.553950D-02 -0.128253D-01
               31            32            33            34            35 
     31  0.100000D+01
     32  0.658292D+00  0.100000D+01
     33  0.457250D-01  0.213784D+00  0.100000D+01
     34  0.213784D+00  0.501171D+00  0.658292D+00  0.100000D+01
     35  0.000000D+00  0.000000D+00  0.000000D+00  0.000000D+00  0.100000D+01
     36  0.000000D+00  0.000000D+00  0.000000D+00  0.000000D+00  0.658292D+00
     37  0.000000D+00  0.000000D+00  0.000000D+00  0.000000D+00  0.535414D-02
     38  0.000000D+00  0.000000D+00  0.000000D+00  0.000000D+00  0.907643D-01
     39  0.000000D+00  0.000000D+00  0.000000D+00  0.000000D+00  0.264293D-03
     40  0.000000D+00  0.000000D+00  0.000000D+00  0.000000D+00  0.209656D-01
     41  0.000000D+00  0.000000D+00  0.000000D+00  0.000000D+00  0.310662D-01
     42  0.000000D+00  0.000000D+00  0.000000D+00  0.000000D+00 -0.268731D-01
     43  0.000000D+00  0.000000D+00  0.000000D+00  0.000000D+00 -0.267956D-02
     44  0.000000D+00  0.000000D+00  0.000000D+00  0.000000D+00  0.115978D+00
     45  0.000000D+00  0.000000D+00  0.000000D+00  0.000000D+00  0.207840D+00
     46  0.000000D+00  0.000000D+00  0.000000D+00  0.000000D+00 -0.179787D+00
     47  0.000000D+00  0.000000D+00  0.000000D+00  0.000000D+00 -0.179268D-01
     48  0.000000D+00  0.000000D+00  0.000000D+00  0.000000D+00  0.276424D-01
     49  0.000000D+00  0.000000D+00  0.000000D+00  0.000000D+00  0.220058D-01
     50  0.000000D+00  0.000000D+00  0.000000D+00  0.000000D+00  0.541740D-02
     51  0.000000D+00  0.000000D+00  0.000000D+00  0.000000D+00 -0.335487D-01
     52  0.000000D+00  0.000000D+00  0.000000D+00  0.000000D+00 -0.334518D-02
     53  0.000000D+00  0.000000D+00  0.000000D+00  0.000000D+00  0.289367D-02
     54  0.000000D+00  0.000000D+00  0.000000D+00  0.000000D+00  0.270558D-01
     55  0.000000D+00  0.000000D+00  0.000000D+00  0.000000D+00  0.224494D+00
     56  0.000000D+00  0.000000D+00  0.000000D+00  0.000000D+00  0.448576D-01
     57  0.000000D+00  0.000000D+00  0.000000D+00  0.000000D+00 -0.288177D+00
     58  0.000000D+00  0.000000D+00  0.000000D+00  0.000000D+00  0.328182D-03
     59  0.000000D+00  0.000000D+00  0.000000D+00  0.000000D+00  0.380502D+00
     60  0.000000D+00  0.000000D+00  0.000000D+00  0.000000D+00  0.839364D-01
     61  0.000000D+00  0.000000D+00  0.000000D+00  0.000000D+00 -0.539229D+00
     62  0.000000D+00  0.000000D+00  0.000000D+00  0.000000D+00  0.614086D-03
     63  0.000000D+00  0.000000D+00  0.000000D+00  0.000000D+00  0.132491D+00
     64  0.000000D+00  0.000000D+00  0.000000D+00  0.000000D+00  0.463173D+00
     65  0.000000D+00  0.000000D+00  0.000000D+00  0.000000D+00  0.124280D+00
     66  0.000000D+00  0.000000D+00  0.000000D+00  0.000000D+00 -0.913693D-01
     67  0.000000D+00  0.000000D+00  0.000000D+00  0.000000D+00  0.104053D-03
     68  0.000000D+00  0.000000D+00  0.000000D+00  0.000000D+00 -0.668466D-03
     69  0.998966D+00  0.658099D+00  0.487640D-01  0.219253D+00  0.000000D+00
     70  0.658099D+00  0.999821D+00  0.219253D+00  0.509020D+00  0.000000D+00
     71  0.487536D-01  0.219235D+00  0.998966D+00  0.658099D+00  0.000000D+00
     72  0.219235D+00  0.508994D+00  0.658099D+00  0.999821D+00  0.000000D+00
     73  0.000000D+00  0.000000D+00  0.000000D+00  0.000000D+00  0.999900D+00
     74  0.000000D+00  0.000000D+00  0.000000D+00  0.000000D+00  0.658273D+00
     75  0.000000D+00  0.000000D+00  0.000000D+00  0.000000D+00  0.521230D-02
     76  0.000000D+00  0.000000D+00  0.000000D+00  0.000000D+00  0.897855D-01
               36            37            38            39            40 
     36  0.100000D+01
     37  0.907643D-01  0.100000D+01
     38  0.295666D+00  0.658292D+00  0.100000D+01
     39  0.238889D-01  0.273689D-03  0.241262D-01  0.100000D+01
     40  0.164816D+00  0.213628D-01  0.166103D+00  0.219059D+00  0.100000D+01
     41  0.116301D+00  0.376516D-01  0.139372D+00  0.000000D+00  0.000000D+00
     42 -0.100604D+00  0.175298D-01  0.648888D-01  0.000000D+00  0.000000D+00
     43 -0.100313D-01 -0.526146D-02 -0.194760D-01  0.000000D+00  0.000000D+00
     44  0.344607D+00  0.116981D+00  0.346415D+00  0.184261D+00  0.812273D+00
     45  0.375259D+00  0.249217D+00  0.448436D+00  0.000000D+00  0.000000D+00
     46 -0.324609D+00  0.116030D+00  0.208783D+00  0.000000D+00  0.000000D+00
     47 -0.323672D-01 -0.348257D-01 -0.626649D-01  0.000000D+00  0.000000D+00
     48  0.153341D+00  0.377479D-01  0.172847D+00  0.791027D-01  0.710235D+00
     49  0.142350D+00  0.123891D-01  0.124106D+00  0.791027D-01  0.710235D+00
     50  0.110003D+00  0.600316D-02  0.111832D+00  0.791027D-01  0.710235D+00
     51 -0.654187D-01  0.261091D-01  0.501833D-01  0.000000D+00  0.000000D+00
     52 -0.652299D-02 -0.783647D-02 -0.150622D-01  0.000000D+00  0.000000D+00
     53  0.564256D-02 -0.364851D-02 -0.701266D-02  0.000000D+00  0.000000D+00
     54  0.744295D-01  0.262716D-01  0.738422D-01  0.233889D-05  0.188170D-01
     55  0.401450D+00  0.220482D+00  0.398796D+00  0.109565D-01  0.175069D+00
     56  0.298889D-01  0.116327D+00  0.785407D-01 -0.254078D-01 -0.224305D+00
     57 -0.192014D+00  0.261290D+00  0.176416D+00  0.367843D-02  0.324739D-01
     58  0.218670D-03 -0.302933D-01 -0.204532D-01  0.249951D-02  0.220662D-01
     59  0.677914D+00  0.377386D+00  0.674793D+00  0.647172D-01  0.362575D+00
     60  0.839076D-01  0.220246D+00  0.220976D+00 -0.136730D+00 -0.563808D+00
     61 -0.539044D+00  0.494712D+00  0.496352D+00  0.197952D-01  0.816257D-01
     62  0.613876D-03 -0.573555D-01 -0.575457D-01  0.134509D-01  0.554651D-01
     63  0.360399D+00  0.178338D+00  0.369160D+00  0.671636D-01  0.360686D+00
     64  0.436016D+00  0.406138D+00  0.421973D+00  0.296762D-02  0.114994D+00
     65  0.358521D+00  0.125845D+00  0.356990D+00  0.222784D-02  0.112163D+00
     66 -0.208934D-01  0.219082D+00  0.507914D-01 -0.164423D-01 -0.629283D-01
     67  0.237939D-04 -0.253997D-01 -0.588862D-02 -0.111727D-01 -0.427601D-01
     68 -0.152858D-03 -0.570523D-01 -0.132269D-01  0.161753D-02  0.619062D-02
     69  0.000000D+00  0.000000D+00  0.000000D+00  0.000000D+00  0.000000D+00
     70  0.000000D+00  0.000000D+00  0.000000D+00  0.000000D+00  0.000000D+00
     71  0.000000D+00  0.000000D+00  0.000000D+00  0.000000D+00  0.000000D+00
     72  0.000000D+00  0.000000D+00  0.000000D+00  0.000000D+00  0.000000D+00
     73  0.658273D+00  0.520399D-02  0.897277D-01  0.266118D-03  0.210433D-01
     74  0.999983D+00  0.897277D-01  0.293579D+00  0.239355D-01  0.165069D+00
     75  0.897855D-01  0.999894D+00  0.658272D+00  0.275083D-03  0.214211D-01
     76  0.293696D+00  0.658272D+00  0.999982D+00  0.241608D-01  0.166291D+00
               41            42            43            44            45 
     41  0.100000D+01
     42  0.000000D+00  0.100000D+01
     43  0.000000D+00  0.000000D+00  0.100000D+01
     44  0.000000D+00  0.000000D+00  0.000000D+00  0.100000D+01
     45  0.569754D+00  0.000000D+00  0.000000D+00  0.000000D+00  0.100000D+01
     46  0.000000D+00  0.569754D+00  0.000000D+00  0.000000D+00  0.000000D+00
     47  0.000000D+00  0.000000D+00  0.569754D+00  0.000000D+00  0.000000D+00
     48  0.000000D+00  0.000000D+00  0.000000D+00  0.629936D+00  0.000000D+00
     49  0.000000D+00  0.000000D+00  0.000000D+00  0.629936D+00  0.000000D+00
     50  0.000000D+00  0.000000D+00  0.000000D+00  0.629936D+00  0.000000D+00
     51  0.000000D+00  0.000000D+00  0.000000D+00  0.000000D+00  0.000000D+00
     52  0.000000D+00  0.000000D+00  0.000000D+00  0.000000D+00  0.000000D+00
     53  0.000000D+00  0.000000D+00  0.000000D+00  0.000000D+00  0.000000D+00
     54  0.401352D-01 -0.581060D-02 -0.394834D-02  0.550842D-01  0.105816D+00
     55  0.263803D+00 -0.381922D-01 -0.259518D-01  0.312094D+00  0.498583D+00
     56 -0.288703D+00  0.555753D-01  0.377637D-01 -0.184907D+00 -0.116550D+00
     57  0.555753D-01  0.871226D-01 -0.546726D-02  0.267700D-01  0.440161D-01
     58  0.377637D-01 -0.546726D-02  0.914535D-01  0.181903D-01  0.299092D-01
     59  0.287408D+00 -0.416096D-01 -0.282740D-01  0.566618D+00  0.622420D+00
     60 -0.210780D+00  0.681491D-01  0.463077D-01 -0.555213D+00 -0.469513D-01
     61  0.681491D-01  0.250076D+00 -0.670422D-02  0.803812D-01  0.882973D-01
     62  0.463077D-01 -0.670422D-02  0.255387D+00  0.546195D-01  0.599985D-01
     63  0.414075D+00 -0.948011D-01 -0.644178D-01  0.368515D+00  0.411189D+00
     64  0.170182D+00  0.102149D-01 -0.167418D-01  0.277206D+00  0.451570D+00
     65  0.164598D+00 -0.238297D-01  0.749047D-02  0.276154D+00  0.449856D+00
     66 -0.939436D-01 -0.190515D+00  0.122111D-01 -0.233866D-01 -0.143848D-01
     67 -0.638351D-01  0.122111D-01 -0.200189D+00 -0.158913D-01 -0.977453D-02
     68  0.122111D-01  0.187421D-01  0.289824D-01  0.230068D-02  0.374781D-02
     69  0.000000D+00  0.000000D+00  0.000000D+00  0.000000D+00  0.000000D+00
     70  0.000000D+00  0.000000D+00  0.000000D+00  0.000000D+00  0.000000D+00
     71  0.000000D+00  0.000000D+00  0.000000D+00  0.000000D+00  0.000000D+00
     72  0.000000D+00  0.000000D+00  0.000000D+00  0.000000D+00  0.000000D+00
     73  0.310625D-01 -0.270887D-01 -0.266099D-02  0.116175D+00  0.207378D+00
     74  0.116029D+00 -0.101186D+00 -0.993972D-02  0.344962D+00  0.374174D+00
     75  0.376868D-01  0.177191D-01 -0.519377D-02  0.117128D+00  0.249062D+00
     76  0.139273D+00  0.654818D-01 -0.191938D-01  0.346679D+00  0.447936D+00
               46            47            48            49            50 
     46  0.100000D+01
     47  0.000000D+00  0.100000D+01
     48  0.000000D+00  0.000000D+00  0.100000D+01
     49  0.000000D+00  0.000000D+00  0.333333D+00  0.100000D+01
     50  0.000000D+00  0.000000D+00  0.333333D+00  0.333333D+00  0.100000D+01
     51  0.000000D+00  0.000000D+00  0.000000D+00  0.000000D+00  0.000000D+00
     52  0.000000D+00  0.000000D+00  0.000000D+00  0.000000D+00  0.000000D+00
     53  0.000000D+00  0.000000D+00  0.000000D+00  0.000000D+00  0.000000D+00
     54 -0.153196D-01 -0.104098D-01  0.509945D-01  0.188177D-02  0.131581D-02
     55 -0.721826D-01 -0.490485D-01  0.323999D+00  0.697119D-01  0.667816D-01
     56  0.440161D-01  0.299092D-01 -0.368656D+00 -0.103363D+00 -0.980515D-01
     57  0.181108D+00 -0.433012D-02  0.816919D-01 -0.133551D-01  0.141955D-01
     58 -0.433012D-02  0.184538D+00  0.555101D-01  0.101684D-01 -0.959736D-02
     59 -0.901112D-01 -0.612310D-01  0.374383D+00  0.250226D+00  0.248795D+00
     60  0.882973D-01  0.599985D-01 -0.425038D+00 -0.437401D+00 -0.434900D+00
     61  0.550156D+00 -0.868631D-02  0.947457D-01  0.301143D-01  0.629628D-01
     62 -0.868631D-02  0.557037D+00  0.643802D-01  0.430296D-01  0.202168D-01
     63 -0.869105D-01 -0.590561D-01  0.465738D+00  0.190476D+00  0.181438D+00
     64 -0.379959D-01 -0.444235D-01  0.190476D+00  0.871446D-01  0.354531D-01
     65 -0.651281D-01 -0.256498D-01  0.181438D+00  0.354531D-01  0.901378D-01
     66 -0.158270D+00  0.374781D-02 -0.129301D+00  0.323326D-01 -0.373907D-01
     67  0.374781D-02 -0.161238D+00 -0.878605D-01 -0.266728D-01  0.232358D-01
     68  0.155699D-01  0.233434D-01  0.197624D-01 -0.318075D-02 -0.336398D-02
     69  0.000000D+00  0.000000D+00  0.000000D+00  0.000000D+00  0.000000D+00
     70  0.000000D+00  0.000000D+00  0.000000D+00  0.000000D+00  0.000000D+00
     71  0.000000D+00  0.000000D+00  0.000000D+00  0.000000D+00  0.000000D+00
     72  0.000000D+00  0.000000D+00  0.000000D+00  0.000000D+00  0.000000D+00
     73 -0.180848D+00 -0.177652D-01  0.275912D-01  0.222465D-01  0.543803D-02
     74 -0.326306D+00 -0.320539D-01  0.153256D+00  0.142864D+00  0.110181D+00
     75  0.117101D+00 -0.343242D-01  0.377520D-01  0.125428D-01  0.600327D-02
     76  0.210605D+00 -0.617319D-01  0.172828D+00  0.124476D+00  0.111933D+00
               51            52            53            54            55 
     51  0.100000D+01
     52  0.000000D+00  0.100000D+01
     53  0.000000D+00  0.000000D+00  0.100000D+01
     54 -0.125791D-01 -0.854756D-02  0.123748D-02  0.100000D+01
     55 -0.651299D-01 -0.442561D-01  0.640721D-02  0.222216D+00  0.100000D+01
     56  0.935243D-01  0.635502D-01 -0.116132D-01  0.000000D+00  0.000000D+00
     57  0.152312D+00 -0.116132D-01 -0.149838D-01  0.000000D+00  0.000000D+00
     58 -0.116132D-01  0.161512D+00 -0.233830D-01  0.000000D+00  0.000000D+00
     59 -0.318002D-01 -0.216084D-01  0.312837D-02  0.171869D+00  0.775507D+00
     60  0.268262D-01  0.182286D-01 -0.546846D-02  0.000000D+00  0.000000D+00
     61  0.190613D+00 -0.546846D-02 -0.187517D-01  0.000000D+00  0.000000D+00
     62 -0.546846D-02  0.194945D+00 -0.282233D-01  0.000000D+00  0.000000D+00
     63 -0.129301D+00 -0.878605D-01  0.197624D-01  0.504134D-01  0.636041D+00
     64  0.323326D-01 -0.266728D-01 -0.318075D-02  0.504134D-01  0.636041D+00
     65 -0.373907D-01  0.232358D-01 -0.336398D-02  0.504134D-01  0.636041D+00
     66 -0.302954D+00  0.220318D-01  0.380535D-01  0.000000D+00  0.000000D+00
     67  0.220318D-01 -0.320406D+00  0.592279D-01  0.000000D+00  0.000000D+00
     68  0.380535D-01  0.592279D-01  0.801200D-01  0.000000D+00  0.000000D+00
     69  0.000000D+00  0.000000D+00  0.000000D+00  0.000000D+00  0.000000D+00
     70  0.000000D+00  0.000000D+00  0.000000D+00  0.000000D+00  0.000000D+00
     71  0.000000D+00  0.000000D+00  0.000000D+00  0.000000D+00  0.000000D+00
     72  0.000000D+00  0.000000D+00  0.000000D+00  0.000000D+00  0.000000D+00
     73 -0.337091D-01 -0.331133D-02  0.288772D-02  0.265409D-01  0.221865D+00
     74 -0.655452D-01 -0.643867D-02  0.561498D-02  0.740453D-01  0.399714D+00
     75  0.263553D-01 -0.772517D-02 -0.363212D-02  0.257939D-01  0.218016D+00
     76  0.505504D-01 -0.148172D-01 -0.696656D-02  0.734781D-01  0.397148D+00
               56            57            58            59            60 
     56  0.100000D+01
     57  0.000000D+00  0.100000D+01
     58  0.000000D+00  0.000000D+00  0.100000D+01
     59  0.000000D+00  0.000000D+00  0.000000D+00  0.100000D+01
     60  0.519296D+00  0.000000D+00  0.000000D+00  0.000000D+00  0.100000D+01
     61  0.000000D+00  0.519296D+00  0.000000D+00  0.000000D+00  0.000000D+00
     62  0.000000D+00  0.000000D+00  0.519296D+00  0.000000D+00  0.000000D+00
     63  0.000000D+00  0.000000D+00  0.000000D+00  0.670250D+00  0.000000D+00
     64  0.000000D+00  0.000000D+00  0.000000D+00  0.670250D+00  0.000000D+00
     65  0.000000D+00  0.000000D+00  0.000000D+00  0.670250D+00  0.000000D+00
     66  0.000000D+00  0.000000D+00  0.000000D+00  0.000000D+00  0.000000D+00
     67  0.000000D+00  0.000000D+00  0.000000D+00  0.000000D+00  0.000000D+00
     68  0.000000D+00  0.000000D+00  0.000000D+00  0.000000D+00  0.000000D+00
     69  0.000000D+00  0.000000D+00  0.000000D+00  0.000000D+00  0.000000D+00
     70  0.000000D+00  0.000000D+00  0.000000D+00  0.000000D+00  0.000000D+00
     71  0.000000D+00  0.000000D+00  0.000000D+00  0.000000D+00  0.000000D+00
     72  0.000000D+00  0.000000D+00  0.000000D+00  0.000000D+00  0.000000D+00
     73  0.427604D-01 -0.285827D+00  0.680231D-03  0.378463D+00  0.806304D-01
     74  0.287388D-01 -0.192101D+00  0.457175D-03  0.675874D+00  0.807953D-01
     75  0.114039D+00  0.259714D+00 -0.289338D-01  0.375454D+00  0.217504D+00
     76  0.776326D-01  0.176802D+00 -0.196969D-01  0.672853D+00  0.218723D+00
               61            62            63            64            65 
     61  0.100000D+01
     62  0.000000D+00  0.100000D+01
     63  0.000000D+00  0.000000D+00  0.100000D+01
     64  0.000000D+00  0.000000D+00  0.333333D+00  0.100000D+01
     65  0.000000D+00  0.000000D+00  0.333333D+00  0.333333D+00  0.100000D+01
     66  0.000000D+00  0.000000D+00  0.000000D+00  0.000000D+00  0.000000D+00
     67  0.000000D+00  0.000000D+00  0.000000D+00  0.000000D+00  0.000000D+00
     68  0.000000D+00  0.000000D+00  0.000000D+00  0.000000D+00  0.000000D+00
     69  0.000000D+00  0.000000D+00  0.000000D+00  0.000000D+00  0.000000D+00
     70  0.000000D+00  0.000000D+00  0.000000D+00  0.000000D+00  0.000000D+00
     71  0.000000D+00  0.000000D+00  0.000000D+00  0.000000D+00  0.000000D+00
     72  0.000000D+00  0.000000D+00  0.000000D+00  0.000000D+00  0.000000D+00
     73 -0.538964D+00  0.128267D-02  0.130360D+00  0.460480D+00  0.122804D+00
     74 -0.540066D+00  0.128529D-02  0.358685D+00  0.434855D+00  0.356941D+00
     75  0.495347D+00 -0.551848D-01  0.175424D+00  0.404780D+00  0.124167D+00
     76  0.498123D+00 -0.554940D-01  0.367416D+00  0.421047D+00  0.355430D+00
               66            67            68            69            70 
     66  0.100000D+01
     67  0.000000D+00  0.100000D+01
     68  0.000000D+00  0.000000D+00  0.100000D+01
     69  0.000000D+00  0.000000D+00  0.000000D+00  0.100000D+01
     70  0.000000D+00  0.000000D+00  0.000000D+00  0.658292D+00  0.100000D+01
     71  0.000000D+00  0.000000D+00  0.000000D+00  0.519984D-01  0.224842D+00
     72  0.000000D+00  0.000000D+00  0.000000D+00  0.224842D+00  0.516964D+00
     73 -0.874990D-01  0.208236D-03 -0.139193D-02  0.000000D+00  0.000000D+00
     74 -0.201891D-01  0.480475D-04 -0.321168D-03  0.000000D+00  0.000000D+00
     75  0.216097D+00 -0.240746D-01 -0.548278D-01  0.000000D+00  0.000000D+00
     76  0.505306D-01 -0.562943D-02 -0.128206D-01  0.000000D+00  0.000000D+00
               71            72            73            74            75 
     71  0.100000D+01
     72  0.658292D+00  0.100000D+01
     73  0.000000D+00  0.000000D+00  0.100000D+01
     74  0.000000D+00  0.000000D+00  0.658292D+00  0.100000D+01
     75  0.000000D+00  0.000000D+00  0.506604D-02  0.887592D-01  0.100000D+01
     76  0.000000D+00  0.000000D+00  0.887592D-01  0.291621D+00  0.658292D+00
               76 
     76  0.100000D+01
 *** Kinetic Energy *** 
                1             2             3             4             5 
      1  0.162076D+02
      2 -0.124757D+01  0.932246D+00
      3  0.000000D+00  0.000000D+00  0.217833D+01
      4  0.000000D+00  0.000000D+00  0.000000D+00  0.217833D+01
      5  0.000000D+00  0.000000D+00  0.000000D+00  0.000000D+00  0.217833D+01
      6  0.899505D-01  0.306718D+00  0.000000D+00  0.000000D+00  0.000000D+00
      7  0.000000D+00  0.000000D+00  0.376673D+00  0.000000D+00  0.000000D+00
      8  0.000000D+00  0.000000D+00  0.000000D+00  0.376673D+00  0.000000D+00
      9  0.000000D+00  0.000000D+00  0.000000D+00  0.000000D+00  0.376673D+00
     10 -0.524817D+00  0.520042D+00  0.000000D+00  0.000000D+00  0.000000D+00
     11 -0.524817D+00  0.520042D+00  0.000000D+00  0.000000D+00  0.000000D+00
     12 -0.524817D+00  0.520042D+00  0.000000D+00  0.000000D+00  0.000000D+00
     13  0.000000D+00  0.000000D+00  0.000000D+00  0.000000D+00  0.000000D+00
     14  0.000000D+00  0.000000D+00  0.000000D+00  0.000000D+00  0.000000D+00
     15  0.000000D+00  0.000000D+00  0.000000D+00  0.000000D+00  0.000000D+00
     16 -0.724983D-04 -0.270843D-01 -0.231913D-01  0.336023D-02  0.227560D-02
     17 -0.332042D-01 -0.243097D-01  0.812322D-01 -0.117699D-01 -0.797073D-02
     18  0.484027D-01 -0.910478D-01 -0.297833D+00  0.459653D-01  0.311284D-01
     19 -0.701315D-02  0.131921D-01  0.459653D-01  0.127465D-01 -0.451024D-02
     20 -0.474941D-02  0.893386D-02  0.311284D-01 -0.451024D-02  0.163521D-01
     21  0.722580D-02  0.650748D-01  0.139016D+00 -0.201423D-01 -0.136407D-01
     22 -0.702556D-01 -0.268686D+00 -0.253477D+00  0.548265D-01  0.371293D-01
     23  0.101794D-01  0.389304D-01  0.548265D-01  0.116976D+00 -0.537973D-02
     24  0.689367D-02  0.263642D-01  0.371293D-01 -0.537973D-02  0.121277D+00
     25 -0.685877D-01  0.214718D+00  0.519611D+00 -0.105447D+00 -0.714105D-01
     26 -0.167289D-01 -0.644818D-01 -0.208107D-01  0.331753D-01  0.204200D-02
     27 -0.161268D-01 -0.677231D-01 -0.295011D-01  0.427446D-02  0.233195D-01
     28  0.132936D-01 -0.715703D-01 -0.165772D+00 -0.152464D+00  0.188289D-01
     29  0.900259D-02 -0.484685D-01 -0.112263D+00  0.188289D-01 -0.167517D+00
     30 -0.130440D-02  0.702268D-02  0.188289D-01  0.149602D-01  0.242718D-01
     31  0.000000D+00  0.000000D+00  0.000000D+00  0.000000D+00  0.000000D+00
     32  0.000000D+00  0.000000D+00  0.000000D+00  0.000000D+00  0.000000D+00
     33  0.000000D+00  0.000000D+00  0.000000D+00  0.000000D+00  0.000000D+00
     34  0.000000D+00  0.000000D+00  0.000000D+00  0.000000D+00  0.000000D+00
     35 -0.162369D-02 -0.287376D-01 -0.284931D-01  0.246271D-01  0.245920D-02
     36 -0.381596D-02 -0.322605D-02  0.251693D-01 -0.217543D-01 -0.217232D-02
     37 -0.167308D-02 -0.290597D-01 -0.341472D-01 -0.158757D-01  0.477163D-02
     38 -0.377863D-02 -0.292402D-02  0.304587D-01  0.141609D-01 -0.425621D-02
     39  0.162031D+02 -0.124745D+01  0.269730D-01 -0.629509D-02 -0.365888D-02
     40 -0.124745D+01  0.932229D+00 -0.116297D-02  0.271420D-03  0.157757D-03
     41 -0.269730D-01  0.116297D-02  0.217827D+01  0.960207D-05  0.558100D-05
     42  0.629509D-02 -0.271420D-03  0.960207D-05  0.217831D+01 -0.130252D-05
     43  0.365888D-02 -0.157757D-03  0.558100D-05 -0.130252D-05  0.217831D+01
     44  0.899503D-01  0.306718D+00  0.471161D-03 -0.109962D-03 -0.639130D-04
     45 -0.361851D-03 -0.948479D-03  0.376671D+00  0.000000D+00  0.000000D+00
     46  0.844506D-04  0.221361D-03  0.000000D+00  0.376673D+00  0.000000D+00
     47  0.490851D-04  0.128661D-03  0.000000D+00  0.000000D+00  0.376673D+00
     48 -0.524783D+00  0.520037D+00 -0.745667D-02 -0.362577D-03 -0.210740D-03
     49 -0.524812D+00  0.520038D+00  0.155351D-02  0.174029D-02 -0.210734D-03
     50 -0.524813D+00  0.520038D+00  0.155351D-02 -0.362565D-03  0.101150D-02
     51 -0.124884D-04  0.000000D+00  0.182110D-02 -0.780308D-02  0.000000D+00
     52 -0.725861D-05  0.000000D+00  0.105848D-02  0.000000D+00 -0.780308D-02
     53  0.169405D-05  0.000000D+00  0.000000D+00  0.105849D-02  0.182112D-02
     54 -0.804148D-04 -0.273445D-01 -0.226990D-01  0.328881D-02  0.223410D-02
     55 -0.340109D-01 -0.225819D-01  0.859013D-01 -0.124461D-01 -0.845466D-02
     56  0.489052D-01 -0.954046D-01 -0.305668D+00  0.473484D-01  0.321640D-01
     57 -0.708576D-02  0.138230D-01  0.473484D-01  0.142658D-01 -0.466017D-02
     58 -0.481339D-02  0.939001D-02  0.321640D-01 -0.466017D-02  0.179603D-01
     59  0.764581D-02  0.666750D-01  0.140535D+00 -0.203618D-01 -0.138318D-01
     60 -0.714714D-01 -0.271268D+00 -0.252705D+00  0.550065D-01  0.373662D-01
     61  0.103553D-01  0.393034D-01  0.550065D-01  0.118974D+00 -0.541391D-02
     62  0.703442D-02  0.266990D-01  0.373662D-01 -0.541391D-02  0.123266D+00
     63 -0.672330D-01  0.219985D+00  0.528401D+00 -0.107753D+00 -0.731969D-01
     64 -0.172708D-01 -0.642784D-01 -0.191833D-01  0.339733D-01  0.188808D-02
     65 -0.166938D-01 -0.675610D-01 -0.279929D-01  0.405583D-02  0.239453D-01
     66  0.128070D-01 -0.728664D-01 -0.168538D+00 -0.158119D+00  0.192469D-01
     67  0.869986D-02 -0.494985D-01 -0.114488D+00  0.192469D-01 -0.173378D+00
     68 -0.126050D-02  0.717173D-02  0.192469D-01  0.155626D-01  0.251203D-01
     69  0.000000D+00  0.000000D+00  0.000000D+00  0.000000D+00  0.000000D+00
     70  0.000000D+00  0.000000D+00  0.000000D+00  0.000000D+00  0.000000D+00
     71  0.000000D+00  0.000000D+00  0.000000D+00  0.000000D+00  0.000000D+00
     72  0.000000D+00  0.000000D+00  0.000000D+00  0.000000D+00  0.000000D+00
     73 -0.163303D-02 -0.287991D-01 -0.284268D-01  0.247698D-01  0.243681D-02
     74 -0.380891D-02 -0.316866D-02  0.251574D-01 -0.219210D-01 -0.215655D-02
     75 -0.168018D-02 -0.291054D-01 -0.341228D-01 -0.160207D-01  0.470253D-02
     76 -0.377325D-02 -0.288089D-02  0.304790D-01  0.143099D-01 -0.420037D-02
                6             7             8             9            10 
      6  0.253072D+00
      7  0.000000D+00  0.421786D+00
      8  0.000000D+00  0.000000D+00  0.421786D+00
      9  0.000000D+00  0.000000D+00  0.000000D+00  0.421786D+00
     10  0.226288D+00  0.000000D+00  0.000000D+00  0.000000D+00  0.173333D+01
     11  0.226288D+00  0.000000D+00  0.000000D+00  0.000000D+00 -0.133333D+00
     12  0.226288D+00  0.000000D+00  0.000000D+00  0.000000D+00 -0.133333D+00
     13  0.000000D+00  0.000000D+00  0.000000D+00  0.000000D+00  0.000000D+00
     14  0.000000D+00  0.000000D+00  0.000000D+00  0.000000D+00  0.000000D+00
     15  0.000000D+00  0.000000D+00  0.000000D+00  0.000000D+00  0.000000D+00
     16  0.912885D-02  0.522096D-01 -0.756473D-02 -0.512295D-02 -0.645922D-01
     17  0.573364D-01  0.227675D+00 -0.329882D-01 -0.223401D-01  0.177134D+00
     18 -0.855244D-01 -0.141362D+00  0.329653D-01  0.223246D-01 -0.503988D+00
     19  0.123918D-01  0.329653D-01  0.813784D-01 -0.323465D-02  0.941634D-01
     20  0.839188D-02  0.223246D-01 -0.323465D-02  0.839642D-01  0.637688D-01
     21  0.987707D-01  0.226068D+00 -0.327554D-01 -0.221824D-01  0.124411D+00
     22 -0.201658D+00 -0.135069D+00  0.490044D-01  0.331865D-01 -0.247492D+00
     23  0.292186D-01  0.490044D-01  0.196044D+00 -0.480844D-02  0.634345D-01
     24  0.197872D-01  0.331865D-01 -0.480844D-02  0.199888D+00  0.429588D-01
     25  0.103490D+00  0.197145D+00 -0.487988D-01 -0.330473D-01  0.685178D+00
     26  0.356307D-01  0.183727D+00 -0.638633D-02 -0.180278D-01 -0.252233D-01
     27  0.348429D-01  0.181950D+00 -0.263630D-01 -0.415055D-02 -0.437581D-01
     28 -0.173951D-01 -0.217144D-01 -0.115256D+00  0.385011D-02 -0.291489D+00
     29 -0.117802D-01 -0.147053D-01  0.385011D-02 -0.118334D+00 -0.197401D+00
     30  0.170685D-02  0.385011D-02  0.113092D-01  0.171455D-01  0.401579D-01
     31  0.000000D+00  0.000000D+00  0.000000D+00  0.000000D+00  0.000000D+00
     32  0.000000D+00  0.000000D+00  0.000000D+00  0.000000D+00  0.000000D+00
     33  0.000000D+00  0.000000D+00  0.000000D+00  0.000000D+00  0.000000D+00
     34  0.000000D+00  0.000000D+00  0.000000D+00  0.000000D+00  0.000000D+00
     35 -0.816938D-02  0.414543D-01 -0.358297D-01 -0.357785D-02 -0.343378D-01
     36  0.245880D-01  0.886572D-01 -0.766280D-01 -0.765186D-02  0.780831D-02
     37 -0.796139D-02  0.503171D-01  0.233935D-01 -0.703116D-02 -0.429106D-01
     38  0.250302D-01  0.106346D+00  0.494424D-01 -0.148604D-01  0.168880D-01
     39  0.899503D-01  0.361851D-03 -0.844506D-04 -0.490851D-04 -0.524783D+00
     40  0.306718D+00  0.948479D-03 -0.221361D-03 -0.128661D-03  0.520037D+00
     41 -0.471161D-03  0.376671D+00  0.000000D+00  0.000000D+00  0.745667D-02
     42  0.109962D-03  0.000000D+00  0.376673D+00  0.000000D+00  0.362577D-03
     43  0.639130D-04  0.000000D+00  0.000000D+00  0.376673D+00  0.210740D-03
     44  0.253071D+00  0.527591D-03 -0.123132D-03 -0.715677D-04  0.226288D+00
     45 -0.527591D-03  0.421785D+00  0.000000D+00  0.000000D+00 -0.294792D-03
     46  0.123132D-03  0.000000D+00  0.421786D+00  0.000000D+00  0.193750D-03
     47  0.715677D-04  0.000000D+00  0.000000D+00  0.421786D+00  0.112613D-03
     48  0.226288D+00  0.294792D-03 -0.193750D-03 -0.112613D-03  0.173330D+01
     49  0.226288D+00  0.830172D-03 -0.687999D-04 -0.112613D-03 -0.133329D+00
     50  0.226288D+00  0.830172D-03 -0.193750D-03 -0.399885D-04 -0.133329D+00
     51  0.000000D+00  0.108209D-03 -0.463653D-03  0.000000D+00  0.519828D-05
     52  0.000000D+00  0.628943D-04  0.000000D+00 -0.463653D-03  0.302139D-05
     53  0.000000D+00  0.000000D+00  0.628945D-04  0.108210D-03  0.000000D+00
     54  0.940651D-02  0.528250D-01 -0.765370D-02 -0.519919D-02 -0.638044D-01
     55  0.585451D-01  0.229560D+00 -0.332604D-01 -0.225940D-01  0.184407D+00
     56 -0.862807D-01 -0.140520D+00  0.330186D-01  0.224297D-01 -0.515602D+00
     57  0.125010D-01  0.330186D-01  0.825867D-01 -0.324979D-02  0.968662D-01
     58  0.849201D-02  0.224297D-01 -0.324979D-02  0.851631D-01  0.658017D-01
     59  0.999681D-01  0.226890D+00 -0.328737D-01 -0.223312D-01  0.125906D+00
     60 -0.202391D+00 -0.132387D+00  0.488757D-01  0.332015D-01 -0.247541D+00
     61  0.293241D-01  0.488757D-01  0.197867D+00 -0.481049D-02  0.636993D-01
     62  0.199200D-01  0.332015D-01 -0.481049D-02  0.201680D+00  0.432713D-01
     63  0.104550D+00  0.197188D+00 -0.489395D-01 -0.332448D-01  0.687139D+00
     64  0.365912D-01  0.185412D+00 -0.649471D-02 -0.182488D-01 -0.229219D-01
     65  0.358065D-01  0.183653D+00 -0.266091D-01 -0.423872D-02 -0.416131D-01
     66 -0.174202D-01 -0.214154D-01 -0.116093D+00  0.384398D-02 -0.294003D+00
     67 -0.118337D-01 -0.145476D-01  0.384398D-02 -0.119140D+00 -0.199717D+00
     68  0.171455D-02  0.384398D-02  0.114262D-01  0.172620D-01  0.408355D-01
     69  0.000000D+00  0.000000D+00  0.000000D+00  0.000000D+00  0.000000D+00
     70  0.000000D+00  0.000000D+00  0.000000D+00  0.000000D+00  0.000000D+00
     71  0.000000D+00  0.000000D+00  0.000000D+00  0.000000D+00  0.000000D+00
     72  0.000000D+00  0.000000D+00  0.000000D+00  0.000000D+00  0.000000D+00
     73 -0.812993D-02  0.414587D-01 -0.361251D-01 -0.355393D-02 -0.342558D-01
     74  0.246723D-01  0.884653D-01 -0.770844D-01 -0.758343D-02  0.772886D-02
     75 -0.793162D-02  0.503718D-01  0.236497D-01 -0.694183D-02 -0.428658D-01
     76  0.250931D-01  0.106284D+00  0.499008D-01 -0.146473D-01  0.168559D-01
               11            12            13            14            15 
     11  0.173333D+01
     12 -0.133333D+00  0.173333D+01
     13  0.000000D+00  0.000000D+00  0.280000D+01
     14  0.000000D+00  0.000000D+00  0.000000D+00  0.280000D+01
     15  0.000000D+00  0.000000D+00  0.000000D+00  0.000000D+00  0.280000D+01
     16 -0.122313D-01 -0.116235D-01  0.134222D-01  0.908974D-02 -0.131703D-02
     17 -0.788648D-01 -0.818367D-01 -0.656231D-01 -0.444409D-01  0.643912D-02
     18  0.593246D-01  0.675580D-01  0.163493D+00  0.110720D+00 -0.178388D-01
     19 -0.297355D-01 -0.978859D-02  0.100013D+00 -0.178388D-01 -0.981351D-02
     20 -0.582109D-02 -0.209452D-01 -0.178388D-01  0.114273D+00 -0.165572D-01
     21  0.207389D-01  0.195353D-01 -0.265755D-01 -0.179973D-01  0.260766D-02
     22 -0.182186D+00 -0.179218D+00  0.416455D-01  0.282029D-01 -0.642961D-02
     23 -0.117788D-02  0.259672D-01  0.155323D+00 -0.642961D-02 -0.152408D-01
     24  0.178766D-01 -0.108886D-02 -0.642961D-02  0.160463D+00 -0.232498D-01
     25 -0.252233D-01 -0.437581D-01 -0.291489D+00 -0.197401D+00  0.401579D-01
     26 -0.359223D-01 -0.691515D-01  0.106641D+00 -0.753832D-02 -0.104639D-01
     27 -0.691515D-01 -0.260538D-01 -0.650937D-02  0.753491D-01 -0.109175D-01
     28  0.106641D+00 -0.650937D-02 -0.538010D+00  0.591067D-01  0.590577D-01
     29 -0.753832D-02  0.753491D-01  0.591067D-01 -0.585262D+00  0.952123D-01
     30 -0.104639D-01 -0.109175D-01  0.590577D-01  0.952123D-01  0.580708D-01
     31  0.000000D+00  0.000000D+00  0.000000D+00  0.000000D+00  0.000000D+00
     32  0.000000D+00  0.000000D+00  0.000000D+00  0.000000D+00  0.000000D+00
     33  0.000000D+00  0.000000D+00  0.000000D+00  0.000000D+00  0.000000D+00
     34  0.000000D+00  0.000000D+00  0.000000D+00  0.000000D+00  0.000000D+00
     35 -0.293451D-01 -0.147473D-01  0.295479D-01  0.295057D-02 -0.255024D-02
     36  0.258136D-02 -0.127015D-01 -0.309345D-01 -0.308903D-02  0.266991D-02
     37 -0.209226D-01 -0.154070D-01 -0.225888D-01  0.678932D-02  0.315650D-02
     38 -0.631092D-02 -0.121303D-01  0.238328D-01 -0.716322D-02 -0.333033D-02
     39 -0.524812D+00 -0.524813D+00 -0.124884D-04 -0.725861D-05  0.169405D-05
     40  0.520038D+00  0.520038D+00  0.000000D+00  0.000000D+00  0.000000D+00
     41 -0.155351D-02 -0.155351D-02 -0.182110D-02 -0.105848D-02  0.000000D+00
     42 -0.174029D-02  0.362565D-03  0.780308D-02  0.000000D+00 -0.105849D-02
     43  0.210734D-03 -0.101150D-02  0.000000D+00  0.780308D-02 -0.182112D-02
     44  0.226288D+00  0.226288D+00  0.000000D+00  0.000000D+00  0.000000D+00
     45 -0.830172D-03 -0.830172D-03 -0.108209D-03 -0.628943D-04  0.000000D+00
     46  0.687999D-04  0.193750D-03  0.463653D-03  0.000000D+00 -0.628945D-04
     47  0.112613D-03  0.399885D-04  0.000000D+00  0.463653D-03 -0.108210D-03
     48 -0.133329D+00 -0.133329D+00  0.519828D-05  0.302139D-05  0.000000D+00
     49  0.173332D+01 -0.133334D+00  0.519831D-05 -0.116208D-05  0.000000D+00
     50 -0.133334D+00  0.173332D+01 -0.199935D-05  0.302140D-05  0.000000D+00
     51  0.519831D-05 -0.199935D-05  0.279996D+01  0.000000D+00  0.362300D-05
     52 -0.116208D-05  0.302140D-05  0.000000D+00  0.279996D+01  0.623335D-05
     53  0.000000D+00  0.000000D+00  0.362300D-05  0.623335D-05  0.279998D+01
     54 -0.126535D-01 -0.120628D-01  0.131117D-01  0.890686D-02 -0.129050D-02
     55 -0.794777D-01 -0.825250D-01 -0.676426D-01 -0.459499D-01  0.665758D-02
     56  0.587585D-01  0.671574D-01  0.167244D+00  0.113610D+00 -0.183496D-01
     57 -0.306751D-01 -0.973029D-02  0.105453D+00 -0.183496D-01 -0.103790D-01
     58 -0.578318D-02 -0.216644D-01 -0.183496D-01  0.120000D+00 -0.173866D-01
     59  0.218025D-01  0.206004D-01 -0.266853D-01 -0.181274D-01  0.262645D-02
     60 -0.184600D+00 -0.181654D+00  0.412725D-01  0.280366D-01 -0.643461D-02
     61 -0.108735D-02  0.263195D-01  0.156895D+00 -0.643461D-02 -0.154421D-01
     62  0.181688D-01 -0.102852D-02 -0.643461D-02  0.161996D+00 -0.234713D-01
     63 -0.229219D-01 -0.416131D-01 -0.294003D+00 -0.199717D+00  0.408355D-01
     64 -0.349151D-01 -0.701970D-01  0.108916D+00 -0.813799D-02 -0.107198D-01
     65 -0.701970D-01 -0.248922D-01 -0.732705D-02  0.771476D-01 -0.111777D-01
     66  0.108916D+00 -0.732705D-02 -0.552053D+00  0.598550D-01  0.609569D-01
     67 -0.813799D-02  0.771476D-01  0.598550D-01 -0.599506D+00  0.977932D-01
     68 -0.107198D-01 -0.111777D-01  0.609569D-01  0.977932D-01  0.612834D-01
     69  0.000000D+00  0.000000D+00  0.000000D+00  0.000000D+00  0.000000D+00
     70  0.000000D+00  0.000000D+00  0.000000D+00  0.000000D+00  0.000000D+00
     71  0.000000D+00  0.000000D+00  0.000000D+00  0.000000D+00  0.000000D+00
     72  0.000000D+00  0.000000D+00  0.000000D+00  0.000000D+00  0.000000D+00
     73 -0.295357D-01 -0.147936D-01  0.295904D-01  0.291105D-02 -0.253655D-02
     74  0.278002D-02 -0.126765D-01 -0.310242D-01 -0.305211D-02  0.265946D-02
     75 -0.210616D-01 -0.154274D-01 -0.227449D-01  0.667627D-02  0.313453D-02
     76 -0.617484D-02 -0.121260D-01  0.240244D-01 -0.705183D-02 -0.331085D-02
               16            17            18            19            20 
     16  0.223808D+02
     17 -0.178034D+01  0.132477D+01
     18  0.000000D+00  0.000000D+00  0.313233D+01
     19  0.000000D+00  0.000000D+00  0.000000D+00  0.313233D+01
     20  0.000000D+00  0.000000D+00  0.000000D+00  0.000000D+00  0.313233D+01
     21  0.105796D+00  0.379313D+00  0.000000D+00  0.000000D+00  0.000000D+00
     22  0.000000D+00  0.000000D+00  0.441948D+00  0.000000D+00  0.000000D+00
     23  0.000000D+00  0.000000D+00  0.000000D+00  0.441948D+00  0.000000D+00
     24  0.000000D+00  0.000000D+00  0.000000D+00  0.000000D+00  0.441948D+00
     25 -0.502744D+00  0.420094D+00  0.000000D+00  0.000000D+00  0.000000D+00
     26 -0.502744D+00  0.420094D+00  0.000000D+00  0.000000D+00  0.000000D+00
     27 -0.502744D+00  0.420094D+00  0.000000D+00  0.000000D+00  0.000000D+00
     28  0.000000D+00  0.000000D+00  0.000000D+00  0.000000D+00  0.000000D+00
     29  0.000000D+00  0.000000D+00  0.000000D+00  0.000000D+00  0.000000D+00
     30  0.000000D+00  0.000000D+00  0.000000D+00  0.000000D+00  0.000000D+00
     31  0.000000D+00  0.000000D+00  0.000000D+00  0.000000D+00  0.000000D+00
     32  0.000000D+00  0.000000D+00  0.000000D+00  0.000000D+00  0.000000D+00
     33  0.000000D+00  0.000000D+00  0.000000D+00  0.000000D+00  0.000000D+00
     34  0.000000D+00  0.000000D+00  0.000000D+00  0.000000D+00  0.000000D+00
     35 -0.291795D-01  0.228166D-02  0.262220D-01 -0.175382D+00  0.244727D-03
     36  0.201536D-01  0.102164D+00  0.151599D-01 -0.101395D+00  0.141486D-03
     37 -0.291584D-01 -0.638245D-03  0.680495D-01  0.155373D+00 -0.179529D-01
     38  0.198034D-01  0.100766D+00  0.407264D-01  0.929879D-01 -0.107445D-01
     39 -0.743880D-04 -0.334035D-01  0.485312D-01 -0.702635D-02 -0.475972D-02
     40 -0.271499D-01 -0.238872D-01 -0.921225D-01  0.133375D-01  0.903495D-02
     41 -0.230733D-01  0.823815D-01 -0.299784D+00  0.462733D-01  0.313460D-01
     42  0.334055D-02 -0.119272D-01  0.462733D-01  0.131275D-01 -0.453827D-02
     43  0.226292D-02 -0.807959D-02  0.313460D-01 -0.453827D-02  0.167527D-01
     44  0.919733D-02  0.576349D-01 -0.857145D-01  0.124097D-01  0.840648D-02
     45  0.523636D-01  0.228149D+00 -0.141169D+00  0.329555D-01  0.223244D-01
     46 -0.758120D-02 -0.330315D-01  0.329555D-01  0.816839D-01 -0.323212D-02
     47 -0.513558D-02 -0.223758D-01  0.223244D-01 -0.323212D-02  0.842658D-01
     48 -0.644118D-01  0.178942D+00 -0.506917D+00  0.947661D-01  0.641955D-01
     49 -0.123331D-01 -0.790264D-01  0.592123D-01 -0.299473D-01 -0.580727D-02
     50 -0.117298D-01 -0.820151D-01  0.674815D-01 -0.976998D-02 -0.210976D-01
     51  0.133392D-01 -0.660749D-01  0.164309D+00  0.101387D+00 -0.179302D-01
     52  0.903609D-02 -0.447598D-01  0.111305D+00 -0.179302D-01  0.115710D+00
     53 -0.130825D-02  0.648032D-02 -0.179302D-01 -0.994356D-02 -0.167524D-01
     54  0.222491D+02 -0.177655D+01 -0.192215D+00  0.279908D-01  0.781058D-02
     55 -0.177655D+01  0.132423D+01  0.902392D-02 -0.131408D-02 -0.366683D-03
     56  0.192215D+00 -0.902392D-02  0.313012D+01  0.212883D-03  0.594032D-04
     57 -0.279908D-01  0.131408D-02  0.212883D-03  0.313155D+01 -0.865041D-05
     58 -0.781058D-02  0.366683D-03  0.594032D-04 -0.865041D-05  0.313158D+01
     59  0.105790D+00  0.379297D+00 -0.255519D-02  0.372091D-03  0.103829D-03
     60  0.197362D-02  0.559542D-02  0.441898D+00  0.485316D-05  0.135423D-05
     61 -0.287402D-03 -0.814817D-03  0.485316D-05  0.441930D+00  0.000000D+00
     62 -0.801970D-04 -0.227367D-03  0.135423D-05  0.000000D+00  0.441931D+00
     63 -0.502210D+00  0.420104D+00  0.404220D-01  0.734779D-03  0.205033D-03
     64 -0.502683D+00  0.420034D+00 -0.504134D-02 -0.588698D-02  0.204852D-03
     65 -0.502692D+00  0.420033D+00 -0.504125D-02  0.734118D-03 -0.164271D-02
     66 -0.121767D-03 -0.179013D-04 -0.573290D-02  0.393761D-01  0.000000D+00
     67 -0.339780D-04 -0.499519D-05 -0.159971D-02  0.000000D+00  0.393762D-01
     68  0.494794D-05  0.000000D+00  0.000000D+00 -0.160003D-02 -0.573405D-02
     69  0.000000D+00  0.000000D+00  0.000000D+00  0.000000D+00  0.000000D+00
     70  0.000000D+00  0.000000D+00  0.000000D+00  0.000000D+00  0.000000D+00
[...]
     25  -0.370989D+01  0.208351D+02  0.131857D+02  0.244779D+02 -0.102161D+03
     26  -0.984260D+01 -0.464161D+02 -0.493606D+02 -0.734506D+02 -0.505579D+02
     27  -0.522351D+02  0.271962D+02  0.253725D+02  0.417150D+02 -0.361733D+02
     28  -0.576150D+00 -0.390152D+01 -0.357506D+01 -0.863893D+01  0.922329D+01
     29  -0.594288D+00  0.520340D+01 -0.339689D+01 -0.246518D+01  0.103956D+02
     30  -0.667413D+00  0.347872D+01  0.687340D+01  0.527393D+01 -0.553031D+00
     31   0.000000D+00  0.000000D+00  0.000000D+00  0.000000D+00  0.000000D+00
     32   0.000000D+00  0.000000D+00  0.000000D+00  0.000000D+00  0.000000D+00
     33   0.000000D+00  0.000000D+00  0.000000D+00  0.000000D+00  0.000000D+00
     34   0.000000D+00  0.000000D+00  0.000000D+00  0.000000D+00  0.000000D+00
     35  -0.291432D+01  0.222910D+02  0.149639D+02  0.468052D+02  0.294969D+01
     36   0.740293D+01  0.107910D+01  0.134236D+01  0.383230D+01  0.232254D+02
     37  -0.243119D+01  0.181815D+02  0.259118D+02  0.199747D+02  0.234329D+01
     38   0.663002D+01  0.107809D+01  0.294596D+01 -0.104067D+00  0.205036D+02
     39  -0.119162D+02 -0.713734D+01 -0.423241D+01 -0.724062D+01  0.527796D+02
     40   0.211569D+01  0.499892D+00  0.575566D+00  0.916418D+00  0.855295D+01
     41  -0.473180D+00  0.104448D+00 -0.100148D+00 -0.196441D-01 -0.180902D+01
     42   0.146184D-01 -0.200886D+00 -0.383220D+00  0.186603D+00  0.339871D+00
     43  -0.128938D+00 -0.141728D+00  0.252593D+00  0.196962D+00  0.184974D+00
     44   0.222155D+00 -0.541976D-01  0.682164D-02 -0.439966D-01  0.282999D+00
     45   0.202818D+00 -0.114658D+00 -0.249014D+00 -0.346628D+00 -0.119143D+00
     46   0.700046D-01  0.246649D+00  0.903288D-01  0.526183D+00  0.635714D+00
     47  -0.860489D-01  0.119052D+01 -0.631732D-01  0.202124D+00  0.314690D+00
     48   0.397670D+01  0.305877D+00  0.124976D+01 -0.605966D+00  0.386311D+02
     49  -0.119393D+01  0.525701D+01  0.405106D+01  0.100783D+02  0.200757D+01
     50   0.275946D+01 -0.437644D+01 -0.278899D+01 -0.528643D+01 -0.307698D+00
     51  -0.102735D+01  0.496118D+01  0.983509D+01 -0.449846D+01 -0.118737D+02
     52   0.161988D+01  0.797380D+01 -0.756921D+01 -0.508347D+01 -0.879675D+01
     53  -0.188389D+00 -0.249946D+01 -0.114627D+01  0.628651D+00  0.131872D+01
     54   0.588468D+01  0.220102D+01  0.264605D+01  0.391040D+01  0.602641D+01
     55   0.252362D+02  0.816850D+01  0.124014D+02  0.174227D+02  0.664887D+02
     56  -0.933205D+02 -0.192609D+02 -0.174358D+02  0.339313D+01  0.448750D+02
     57   0.141872D+02 -0.331229D+02 -0.979524D+02  0.898943D+02 -0.583446D+01
     58   0.470327D+01 -0.112203D+03  0.695280D+02  0.324532D+02 -0.110613D+02
     59  -0.128985D+00 -0.101759D+00 -0.173288D+00 -0.214072D+00 -0.307607D-01
     60  -0.989853D+01  0.223913D+00 -0.254421D+01 -0.288336D+01 -0.217691D+02
     61   0.119342D+01  0.284152D+01  0.341520D+01  0.213424D+01  0.503957D+01
     62   0.143076D+00  0.998311D+01 -0.254571D+01  0.254024D+00  0.194666D+01
     63   0.161654D+01 -0.214872D+02 -0.137445D+02 -0.246957D+02  0.104562D+03
     64   0.998648D+01  0.462691D+02  0.494539D+02  0.727425D+02  0.505760D+02
     65   0.523905D+02 -0.270527D+02 -0.253744D+02 -0.416581D+02  0.362505D+02
     66   0.960413D+00  0.353709D+01  0.231932D+01  0.987640D+01 -0.962348D+01
     67   0.703227D+00 -0.653678D+01  0.433770D+01  0.294129D+01 -0.107199D+02
     68   0.648139D+00 -0.321710D+01 -0.687939D+01 -0.535376D+01  0.616877D+00
     69   0.000000D+00  0.000000D+00  0.000000D+00  0.000000D+00  0.000000D+00
     70   0.000000D+00  0.000000D+00  0.000000D+00  0.000000D+00  0.000000D+00
     71   0.000000D+00  0.000000D+00  0.000000D+00  0.000000D+00  0.000000D+00
     72   0.000000D+00  0.000000D+00  0.000000D+00  0.000000D+00  0.000000D+00
     73   0.291133D+01 -0.220343D+02 -0.147669D+02 -0.462452D+02 -0.279490D+01
     74  -0.752495D+01 -0.102471D+01 -0.135800D+01 -0.365312D+01 -0.233682D+02
     75   0.243300D+01 -0.178946D+02 -0.255298D+02 -0.196347D+02 -0.219319D+01
     76  -0.674384D+01 -0.100103D+01 -0.282376D+01  0.130591D+00 -0.206376D+02
                56            57            58            59            60 
      1  -0.461182D+01 -0.436497D+00  0.183611D+00 -0.766469D+01 -0.311001D+01
      2  -0.186646D+01 -0.406212D+00  0.207125D+00 -0.972657D+01 -0.130374D+02
      3  -0.451653D+01 -0.876290D-01 -0.515806D+00  0.305573D+01 -0.185008D+01
      4   0.344695D+00  0.256272D+01 -0.141337D+01 -0.387848D+01  0.451783D+01
      5   0.371871D+00 -0.167142D+01 -0.635615D+01 -0.781408D+01  0.977518D+01
      6  -0.131944D+00 -0.790963D-02 -0.668304D-01 -0.104419D+01 -0.139988D+01
      7  -0.863775D+00  0.116796D+01 -0.289401D+01 -0.366315D+01 -0.854495D+01
      8  -0.210797D+01  0.292026D+02 -0.145816D+02 -0.717383D+01 -0.107612D+02
      9  -0.692762D+00 -0.990382D+01 -0.405304D+02  0.280372D+02  0.260423D+01
     10   0.340855D+02 -0.863849D+00 -0.255343D+01  0.927204D+00  0.493214D+02
     11  -0.254276D+02 -0.199610D+01  0.272951D+01 -0.124450D+02 -0.513801D+02
     12  -0.189328D+02  0.109904D+01  0.118540D+01 -0.107683D+02 -0.594164D+02
     13  -0.129327D+02 -0.352929D+00  0.970767D+00 -0.467882D+02  0.717815D+02
     14  -0.143376D+02 -0.807238D+01 -0.161542D+02 -0.201516D+03  0.147501D+03
     15   0.326368D+01  0.257987D+01  0.786408D+01  0.152548D+03 -0.182202D+03
     16   0.228602D+02  0.244993D+00 -0.170129D+01 -0.488585D+01 -0.371447D+01
     17   0.184766D+03  0.248739D+01 -0.127336D+02 -0.407828D+02 -0.198872D+02
     18  -0.213535D+01 -0.180272D+00 -0.207967D+01 -0.317773D+01  0.614915D+01
     19  -0.169512D+01  0.286046D+01 -0.272114D+01 -0.621548D+01  0.683629D+01
     20  -0.163795D+01 -0.597024D+01 -0.209370D+02 -0.122020D+02  0.156341D+02
     21  -0.804442D-01 -0.891011D-01 -0.117409D+00  0.109006D+00  0.425623D+00
     22   0.421780D+02  0.133729D+02 -0.401168D+02  0.822538D+02  0.113349D+03
     23  -0.154867D+02  0.143465D+03 -0.711582D+02 -0.540360D+02 -0.415827D+02
     24  -0.104161D+02 -0.704696D+02 -0.252015D+03  0.596298D+02  0.273891D+02
     25  -0.493078D+02 -0.189522D+01  0.130869D+02  0.285362D+02  0.596047D+02
     26  -0.801409D+02 -0.404267D+00  0.185370D+02  0.541226D+02  0.617498D+02
     27  -0.581220D+02  0.301195D+00  0.705247D+01  0.636580D+02  0.576939D+02
     28  -0.406446D+01 -0.107051D+02  0.580339D+01 -0.377847D+01  0.179747D+02
     29  -0.932864D-01  0.320432D+01  0.132001D+02 -0.346273D+02  0.250171D+02
     30   0.195205D+01 -0.188927D+01 -0.296166D+01 -0.633543D+01  0.109867D+02
     31   0.000000D+00  0.000000D+00  0.000000D+00  0.000000D+00  0.000000D+00
     32   0.000000D+00  0.000000D+00  0.000000D+00  0.000000D+00  0.000000D+00
     33   0.000000D+00  0.000000D+00  0.000000D+00  0.000000D+00  0.000000D+00
     34   0.000000D+00  0.000000D+00  0.000000D+00  0.000000D+00  0.000000D+00
     35   0.751842D+01  0.277996D+02 -0.131435D+02 -0.906329D+01 -0.112345D+02
     36   0.377702D+02 -0.117648D+03  0.681879D+02  0.113070D+03  0.125660D+03
     37   0.712241D+01 -0.261409D+02  0.176910D+01 -0.784646D+01 -0.835340D+01
     38   0.306233D+02  0.151715D+03  0.783781D+01  0.150513D+03  0.156217D+03
     39   0.456859D+01  0.432669D+00 -0.200607D+00  0.757480D+01  0.305133D+01
     40   0.171057D+01  0.401474D+00 -0.268997D+00  0.947025D+01  0.127766D+02
     41   0.410990D+01  0.653628D-01  0.503799D+00 -0.341574D+01  0.172456D+01
     42  -0.279851D+00 -0.255272D+01  0.139377D+01  0.418170D+01 -0.501983D+01
     43  -0.310730D+00  0.164560D+01  0.624782D+01  0.892600D+01 -0.106575D+02
     44  -0.131969D+00 -0.795551D-02 -0.668258D-01 -0.104471D+01 -0.140069D+01
     45   0.804317D+00 -0.107016D+01  0.267681D+01  0.281903D+01  0.734950D+01
     46   0.206437D+01 -0.282722D+02  0.142266D+02  0.712471D+01  0.110097D+02
     47   0.657413D+00  0.958272D+01  0.394668D+02 -0.279089D+02 -0.209679D+01
     48  -0.341770D+02  0.902200D+00  0.247831D+01 -0.977435D+00 -0.492632D+02
     49   0.253203D+02  0.191171D+01 -0.272703D+01  0.123283D+02  0.513108D+02
     50   0.188375D+02 -0.109294D+01 -0.116361D+01  0.105327D+02  0.592875D+02
     51   0.129236D+02  0.611668D+00 -0.107730D+01  0.468520D+02 -0.720254D+02
     52   0.143315D+02  0.796810D+01  0.158218D+02  0.202007D+03 -0.147829D+03
     53  -0.325746D+01 -0.258590D+01 -0.779997D+01 -0.152648D+03  0.182328D+03
     54  -0.228295D+02 -0.250405D+00  0.167491D+01  0.492998D+01  0.381875D+01
     55  -0.184537D+03 -0.249067D+01  0.126403D+02  0.410207D+02  0.201849D+02
     56   0.449176D+00  0.170626D+00  0.233406D+01  0.379855D+01 -0.494544D+01
     57   0.195740D+01 -0.293932D+01  0.272863D+01  0.596565D+01 -0.667437D+01
     58   0.168013D+01  0.591710D+01  0.209585D+02  0.113682D+02 -0.152393D+02
     59  -0.789372D-01 -0.887795D-01 -0.115907D+00  0.120541D+00  0.440005D+00
     60  -0.424060D+02 -0.134667D+02  0.395903D+02 -0.856910D+02 -0.117544D+03
     61   0.155134D+02 -0.143363D+03  0.711824D+02  0.543692D+02  0.421186D+02
     62   0.105960D+02  0.708940D+02  0.252788D+03 -0.591294D+02 -0.267481D+02
     63   0.494848D+02  0.190666D+01 -0.129809D+02 -0.280962D+02 -0.599527D+02
     64   0.800363D+02  0.398603D+00 -0.185417D+02 -0.540321D+02 -0.615239D+02
     65   0.582562D+02 -0.312828D+00 -0.716575D+01 -0.636186D+02 -0.574509D+02
     66   0.408292D+01  0.106244D+02 -0.572321D+01  0.400837D+01 -0.182318D+02
     67   0.146274D+00 -0.301964D+01 -0.125225D+02  0.351969D+02 -0.256755D+02
     68  -0.192412D+01  0.185131D+01  0.287615D+01  0.636742D+01 -0.109085D+02
     69   0.000000D+00  0.000000D+00  0.000000D+00  0.000000D+00  0.000000D+00
     70   0.000000D+00  0.000000D+00  0.000000D+00  0.000000D+00  0.000000D+00
     71   0.000000D+00  0.000000D+00  0.000000D+00  0.000000D+00  0.000000D+00
     72   0.000000D+00  0.000000D+00  0.000000D+00  0.000000D+00  0.000000D+00
     73  -0.725501D+01 -0.275786D+02  0.129783D+02  0.905624D+01  0.111866D+02
     74  -0.376633D+02  0.117775D+03 -0.680785D+02 -0.112376D+03 -0.124689D+03
     75  -0.686105D+01  0.259615D+02 -0.178618D+01  0.788279D+01  0.842337D+01
     76  -0.304867D+02 -0.151675D+03 -0.751916D+01 -0.149352D+03 -0.155094D+03
                61            62            63            64            65 
      1  -0.625549D+01 -0.695471D+01  0.367563D+02 -0.434687D+01  0.251654D+02
      2  -0.225733D+01 -0.831390D+01  0.963399D+02 -0.155129D+02  0.220915D+02
      3   0.558129D+01  0.577010D+01 -0.128311D+02  0.255493D+01 -0.170449D+03
      4  -0.178312D+02 -0.506278D+01 -0.136141D+01  0.232259D+01  0.242565D+02
      5   0.591168D+01 -0.112594D+02  0.230631D+01 -0.107755D+01  0.161552D+02
      6  -0.132051D+00  0.132466D+00  0.134258D+01 -0.931138D-02 -0.265112D+01
      7   0.680211D-01  0.169257D+01  0.148142D+02 -0.153124D+01 -0.190044D+02
      8   0.119655D+02  0.732434D+01 -0.228388D+02  0.499070D+00  0.302035D+02
      9  -0.686676D+01  0.974878D+01  0.898800D+01 -0.236283D+01  0.504575D+01
     10  -0.163870D+01 -0.166853D+02 -0.738634D+02  0.134745D+02 -0.377829D+03
     11   0.599759D+02  0.521097D+00  0.220440D+03  0.293056D+03  0.113933D+03
     12  -0.405254D+02  0.836582D+01  0.155916D+03 -0.360708D+03  0.863500D+02
     13  -0.333021D+03 -0.112229D+03  0.327100D+02  0.754876D+02  0.152030D+02
     14   0.132003D+03 -0.231748D+03  0.170926D+02 -0.441146D+02  0.262835D+02
     15   0.189295D+02 -0.293729D+03 -0.515613D+02  0.547509D+00 -0.233173D+01
     16  -0.139382D+01 -0.781086D+00  0.371901D+01  0.248306D-01  0.452538D+01
     17  -0.166657D+02 -0.154163D+02  0.474102D+02 -0.617925D+00  0.938100D+02
     18  -0.529414D+01 -0.435346D+01 -0.510330D+01  0.101555D+01  0.180313D+02
     19  -0.278693D+02 -0.441035D+01 -0.343842D+01  0.161935D+01 -0.297896D+01
     20   0.111286D+02 -0.141379D+02  0.307084D+01 -0.505199D+00 -0.425054D+01
     21  -0.328861D-01  0.204909D-01 -0.240034D+01  0.621273D-01  0.327179D+01
     22   0.100570D+02  0.347155D-01 -0.213133D+03  0.102369D+02  0.255479D+03
     23  -0.153471D+02  0.180961D+02 -0.620285D+02  0.767178D+00  0.650177D+02
     24   0.621595D+00 -0.656656D+01  0.706039D+02 -0.657510D+01 -0.476677D+02
     25  -0.100361D+02 -0.190462D+02  0.691114D+01 -0.845747D+00  0.652485D+02
     26   0.149240D+02 -0.597600D+01 -0.359301D+02 -0.419009D+02  0.397074D+02
     27   0.331811D+01  0.961632D+00 -0.268377D+02  0.323654D+02  0.489690D+02
     28  -0.447648D+02 -0.747188D+01 -0.320406D+01 -0.217585D+01 -0.141970D+02
     29   0.212703D+02 -0.200293D+02 -0.614769D+01  0.378639D+01 -0.494402D+01
     30   0.354951D+01  0.347080D+02  0.718345D+01  0.163982D+00  0.155604D+01
     31   0.000000D+00  0.000000D+00  0.000000D+00  0.000000D+00  0.000000D+00
     32   0.000000D+00  0.000000D+00  0.000000D+00  0.000000D+00  0.000000D+00
     33   0.000000D+00  0.000000D+00  0.000000D+00  0.000000D+00  0.000000D+00
     34   0.000000D+00  0.000000D+00  0.000000D+00  0.000000D+00  0.000000D+00
     35   0.200965D+01  0.208352D+01  0.124049D+01  0.911003D+01  0.559072D+01
     36   0.166955D+02 -0.106289D+02  0.709021D+02 -0.241017D+02  0.376283D+02
     37  -0.411182D+01  0.323392D+01  0.558117D+00  0.676780D+01  0.302116D+01
     38   0.277714D+02 -0.370617D+02  0.173267D+03 -0.203290D+02 -0.847514D+02
     39   0.620046D+01  0.691927D+01 -0.366297D+02  0.434210D+01 -0.246775D+02
     40   0.217014D+01  0.827272D+01 -0.958668D+02  0.155217D+02 -0.216247D+02
     41  -0.601407D+01 -0.615150D+01  0.143110D+02 -0.267525D+01  0.173267D+03
     42   0.194797D+02  0.546525D+01  0.115203D+01 -0.231810D+01 -0.242492D+02
     43  -0.650693D+01  0.120681D+02 -0.246202D+01  0.105325D+01 -0.163030D+02
     44  -0.132029D+00  0.132589D+00  0.134333D+01 -0.932835D-02 -0.265285D+01
     45  -0.108329D+00 -0.153398D+01 -0.136407D+02  0.149874D+01  0.162950D+02
     46  -0.123670D+02 -0.737655D+01  0.224234D+02 -0.500258D+00 -0.297517D+02
     47   0.702010D+01 -0.993106D+01 -0.900618D+01  0.237070D+01 -0.481670D+01
     48   0.147802D+01  0.165398D+02  0.742284D+02 -0.134945D+02  0.379100D+03
     49  -0.601595D+02 -0.555997D+00 -0.220383D+03 -0.293144D+03 -0.114178D+03
     50   0.405489D+02 -0.840317D+01 -0.155924D+03  0.360811D+03 -0.865245D+02
     51   0.333695D+03  0.112435D+03 -0.328224D+02 -0.755528D+02 -0.152593D+02
     52  -0.132247D+03  0.232138D+03 -0.171060D+02  0.441303D+02 -0.264050D+02
     53  -0.189567D+02  0.293739D+03  0.516039D+02 -0.543494D+00  0.231587D+01
     54   0.140481D+01  0.758176D+00 -0.382694D+01 -0.923212D-02 -0.448823D+01
     55   0.167542D+02  0.154400D+02 -0.478599D+02  0.723402D+00 -0.941898D+02
     56   0.510689D+01  0.394091D+01  0.534553D+01 -0.104560D+01 -0.160232D+02
     57   0.268917D+02  0.422725D+01  0.348859D+01 -0.150964D+01  0.247811D+01
     58  -0.106821D+02  0.136004D+02 -0.324358D+01  0.546588D+00  0.400764D+01
     59  -0.311855D-01  0.188763D-01 -0.240664D+01  0.615815D-01  0.328948D+01
     60  -0.105687D+02  0.457145D+00  0.214300D+03 -0.100845D+02 -0.259965D+03
     61   0.152105D+02 -0.181558D+02  0.614401D+02 -0.771740D+00 -0.639113D+02
     62  -0.504199D+00  0.645052D+01 -0.703261D+02  0.652149D+01  0.478695D+02
     63   0.106045D+02  0.194846D+02 -0.692014D+01  0.790013D+00 -0.676407D+02
     64  -0.151863D+02  0.589710D+01  0.359399D+02  0.420170D+02 -0.399248D+02
     65  -0.323728D+01 -0.104977D+01  0.267262D+02 -0.325212D+02 -0.490108D+02
     66   0.459164D+02  0.762173D+01  0.337590D+01  0.211787D+01  0.146070D+02
     67  -0.217920D+02  0.206053D+02  0.606620D+01 -0.376997D+01  0.527640D+01
     68  -0.356932D+01 -0.350100D+02 -0.712874D+01 -0.150307D+00 -0.165552D+01
     69   0.000000D+00  0.000000D+00  0.000000D+00  0.000000D+00  0.000000D+00
     70   0.000000D+00  0.000000D+00  0.000000D+00  0.000000D+00  0.000000D+00
     71   0.000000D+00  0.000000D+00  0.000000D+00  0.000000D+00  0.000000D+00
     72   0.000000D+00  0.000000D+00  0.000000D+00  0.000000D+00  0.000000D+00
     73  -0.191186D+01 -0.203731D+01 -0.138414D+01 -0.899163D+01 -0.540005D+01
     74  -0.168373D+02  0.105231D+02 -0.708240D+02  0.240432D+02 -0.369184D+02
     75   0.402697D+01 -0.323112D+01 -0.544492D+00 -0.665633D+01 -0.303467D+01
     76  -0.273464D+02  0.368418D+02 -0.172132D+03  0.202482D+02  0.843467D+02
                66            67 
      1   0.688481D+01 -0.163090D+02
      2   0.719725D+02 -0.156823D+03
      3   0.943766D+02 -0.381124D+03
      4   0.141513D+01  0.864732D+02
      5  -0.981374D+01  0.533858D+02
      6   0.560547D-01  0.323734D+01
      7   0.170068D+02  0.172746D+02
      8   0.768863D+02  0.278937D+02
      9  -0.594770D+01  0.126086D+02
     10   0.147671D+03 -0.149960D+03
     11   0.102415D+03 -0.234501D+03
     12   0.739236D+02 -0.222264D+03
     13   0.557508D+01 -0.312255D+02
     14   0.374986D-01 -0.638155D+01
     15   0.235636D+02  0.829583D+01
     16  -0.170962D+01  0.492159D+00
     17  -0.253878D+02  0.144204D+02
     18  -0.916671D+01  0.114068D+02
     19   0.129852D+02  0.255601D+00
     20   0.514939D+00 -0.120774D+01
     21  -0.993410D+00 -0.497483D+01
     22   0.906709D+01 -0.339091D+03
     23   0.398809D+03  0.146163D+03
     24  -0.240335D+02  0.529226D+02
     25  -0.872743D+01  0.289556D+02
     26  -0.349495D+01 -0.333141D+01
     27   0.720971D+01 -0.128275D+02
     28  -0.110418D+02 -0.106715D+02
     29   0.298627D+01 -0.602451D+01
     30  -0.426188D+01 -0.435642D+00
     31   0.000000D+00  0.000000D+00
     32   0.000000D+00  0.000000D+00
     33   0.000000D+00  0.000000D+00
     34   0.000000D+00  0.000000D+00
     35   0.744913D+01 -0.716509D+01
     36   0.357617D+03  0.170318D+03
     37  -0.101003D+01 -0.797513D+01
     38  -0.128540D+03  0.387760D+02
     39  -0.720390D+01  0.175941D+02
     40  -0.724868D+02  0.159890D+03
     41  -0.950829D+02  0.382095D+03
     42  -0.105686D+01 -0.864603D+02
     43   0.985790D+01 -0.534936D+02
     44   0.562421D-01  0.323885D+01
     45  -0.165775D+02 -0.148853D+02
     46  -0.764051D+02 -0.280851D+02
     47   0.582326D+01 -0.128225D+02
     48  -0.147976D+03  0.149076D+03
     49  -0.102534D+03  0.234482D+03
     50  -0.739853D+02  0.222255D+03
     51  -0.529961D+01  0.316321D+02
     52  -0.483214D-01  0.655098D+01
     53  -0.236398D+02 -0.836198D+01
     54   0.163620D+01 -0.341314D+00
     55   0.253593D+02 -0.140663D+02
     56   0.885747D+01 -0.109259D+02
     57  -0.132160D+02 -0.455685D+00
     58  -0.408790D+00  0.109821D+01
     59  -0.989212D+00 -0.499624D+01
     60  -0.101650D+02  0.343724D+03
     61  -0.396746D+03 -0.146279D+03
     62   0.239646D+02 -0.532427D+02
     63   0.970199D+01 -0.297318D+02
     64   0.363098D+01  0.351037D+01
     65  -0.717827D+01  0.128530D+02
     66   0.103977D+02  0.107623D+02
     67  -0.308175D+01  0.609264D+01
     68   0.416125D+01  0.396058D+00
     69   0.000000D+00  0.000000D+00
     70   0.000000D+00  0.000000D+00
     71   0.000000D+00  0.000000D+00
     72   0.000000D+00  0.000000D+00
     73  -0.705528D+01  0.714998D+01
     74  -0.354503D+03 -0.169137D+03
     75   0.698611D+00  0.776750D+01
     76   0.126925D+03 -0.388698D+02
 NBasis=    76 RedAO= T  NBF=    76
 NBsUse=    67 1.00D-06 NBFU=    67
 Harris functional with IExCor=  205 diagonalized for initial guess.
 ExpMin= 1.61D-01 ExpMax= 4.17D+03 ExpMxC= 6.27D+02 IAcc=1 IRadAn=         1 AccDes= 0.00D+00
 HarFok:  IExCor=  205 AccDes= 0.00D+00 IRadAn=         1 IDoV= 1
 ScaDFX=  1.000000  1.000000  1.000000  1.000000
 Spurious integrated density or basis function:
 NE=   34 NElCor=    0 El error=1.43D-01 rel=4.21D-03 Tolerance=1.00D-03
 Shell     5     absolute error=3.11D-02              Tolerance=1.20D-02
 Shell     5       signed error=3.11D-02              Tolerance=1.00D-01
 Inaccurate quadrature in CalDSu.
 Error termination via Lnk1e in /opt//g09/l401.exe at Mon Jan  6 13:31:03 2014.
 Job cpu time:  0 days  0 hours  0 minutes  0.8 seconds.
 File lengths (MBytes):  RWF=      5 Int=      0 D2E=      0 Chk=      1 Scr=      1
