 Search path for license: 
 /opt/src/turbomole63/TURBOMOLE//LICENSE/turbo_license.ctd
 Checking license file: /opt/src/turbomole63/TURBOMOLE//LICENSE/turbo_license.ctd
==========================================================
                  license information 
   Version: V6.3                                                   
   Date: 05/11/12                                                  
   Licensee:                                                       
     Zhenggang Lan                                                 
     Qingdao Institute of Bioenergy and Bioprocess Technology      
     Chinese Academy of Science, Qingdao                           
   Nodes: 48                                                       
==========================================================
 operating system is UNIX !
 hostname is         user.qibebt.ac.cn

   OpenMP run-time library returned nthreads =  8

 dscf(user.qibebt.ac.cn) : TURBOMOLE V6.3.1 3 Jun 2011 at 17:31:45
 Copyright (C) 2011 TURBOMOLE GmbH, Karlsruhe


    2013-10-25 10:52:22.906 



                             d s c f - program

                   idea & directorship : reinhart ahlrichs
                   program development : marco haeser
                                         michael baer
                           dft version : oliver treutler


                          quantum chemistry group
                          universitaet  karlsruhe
                                  germany




                          References             
                                                 
          TURBOMOLE:                             
              R. Ahlrichs, M. Baer, M. Haeser, H. Horn, and
              C. Koelmel
              Electronic structure calculations on workstation
              computers: the program system TURBOMOLE
              Chem. Phys. Lett. 162: 165 (1989)
          Density Functional:                              
              O. Treutler and R. Ahlrichs                      
              Efficient Molecular Numerical Integration Schemes
              J. Chem. Phys. 102: 346 (1995)                   
          Parallel Version:                                
              Performance of parallel TURBOMOLE for Density    
              Functional Calculations                          
              M. v. Arnim and R. Ahlrichs                      
              J. Comp. Chem. 19: 1746 (1998)                   
                                         



   *************************************************************************
   VE                                                                       
   *************************************************************************




              +--------------------------------------------------+
              | Atomic coordinate, charge and isotop information |
              +--------------------------------------------------+


              atomic coordinates              atom shells charge pseudo isotop
    18.80927379   -3.43052189    0.00000000    c      9    6.000    0     0
    16.94234153   -1.60820040    0.00000000    c      9    6.000    0     0
    14.40992521   -2.30805103    0.00000000    c      9    6.000    0     0
    13.78316542   -4.85930981    0.00000000    c      9    6.000    0     0
    15.65750540   -6.67385697    0.00000000    c      9    6.000    0     0
    18.17329024   -5.96560084    0.00000000    c      9    6.000    0     0
     7.66177555    7.40556081    0.00000000    c      9    6.000    0     0
     5.14879129    6.70886603    0.00000000    c      9    6.000    0     0
     4.49036157    4.16623385    0.00000000    c      9    6.000    0     0
     6.37578668    2.34372150    0.00000000    c      9    6.000    0     0
     8.90322925    3.04183546    0.00000000    c      9    6.000    0     0
     9.53592845    5.59162215    0.00000000    c      9    6.000    0     0
    -4.78802367    3.91217151    0.00000000    c      9    6.000    0     0
    -7.29427106    3.21076564    0.00000000    c      9    6.000    0     0
    -7.96679625    0.67095293    0.00000000    c      9    6.000    0     0
    -6.07309791   -1.15009299    0.00000000    c      9    6.000    0     0
    -3.56705083   -0.44866256    0.00000000    c      9    6.000    0     0
    -2.89489981    2.09091016    0.00000000    c      9    6.000    0     0
   -17.24297429    0.41648997    0.00000000    c      9    6.000    0     0
   -19.75261941   -0.29420201    0.00000000    c      9    6.000    0     0
   -20.40219765   -2.82598150    0.00000000    c      9    6.000    0     0
   -18.52926929   -4.64911746    0.00000000    c      9    6.000    0     0
   -16.01661950   -3.94860921    0.00000000    c      9    6.000    0     0
   -15.35176283   -1.40697103    0.00000000    c      9    6.000    0     0
    12.45848062   -0.41593628    0.00000000    c      9    6.000    0     0
    10.84855490    1.14362068    0.00000000    c      9    6.000    0     0
     1.87675694    3.42733960    0.00000000    c      9    6.000    0     0
    -0.28140101    2.82319415    0.00000000    c      9    6.000    0     0
   -10.57962987   -0.06287875    0.00000000    c      9    6.000    0     0
   -12.73702059   -0.67129308    0.00000000    c      9    6.000    0     0
    15.15252522   -8.64005465    0.00000000    h      4    1.000    0     0
    11.83039991   -5.40779526    0.00000000    h      4    1.000    0     0
    19.62974941   -7.37968479    0.00000000    h      4    1.000    0     0
    20.76065980   -2.87090407    0.00000000    h      4    1.000    0     0
    17.43538620    0.35933898    0.00000000    h      4    1.000    0     0
     5.87515477    0.38016943    0.00000000    h      4    1.000    0     0
     3.69275541    8.12038185    0.00000000    h      4    1.000    0     0
     8.16239802    9.37210809    0.00000000    h      4    1.000    0     0
    11.48889616    6.13714829    0.00000000    h      4    1.000    0     0
    -2.11788411   -1.86722138    0.00000000    h      4    1.000    0     0
    -6.57519814   -3.11484692    0.00000000    h      4    1.000    0     0
    -8.74358896    4.62922242    0.00000000    h      4    1.000    0     0
    -4.28489165    5.87673647    0.00000000    h      4    1.000    0     0
   -14.56147558   -5.36165004    0.00000000    h      4    1.000    0     0
   -19.02494823   -6.61769809    0.00000000    h      4    1.000    0     0
   -22.35630108   -3.37494883    0.00000000    h      4    1.000    0     0
   -21.20064284    1.12841783    0.00000000    h      4    1.000    0     0
   -16.73635572    2.38062407    0.00000000    h      4    1.000    0     0
 

     center of nuclear mass  :    0.04650814    0.18119158    0.00000000

     center of nuclear charge:    0.04046382    0.15734008    0.00000000


              +--------------------------------------------------+
              |               basis set information              |
              +--------------------------------------------------+


              we will work with the  1s 3p 5d  7f  9g ... basis set
              ...i.e. with spherical basis functions...


   type   atoms  prim   cont   basis
   ---------------------------------------------------------------------------
    c       30     34     19   TZVP   [5s3p1d|11s6p1d]
    h       18      8      6   TZVP   [3s1p|5s1p]
   ---------------------------------------------------------------------------
   total:   48   1164    678
   ---------------------------------------------------------------------------

   total number of primitive shells          :   24
   total number of contracted shells         :  342
   total number of cartesian basis functions :  708
   total number of SCF-basis functions       :  678


 integral neglect threshold       :  0.47E-11
 integral storage threshold THIZE :  0.10E-04
 integral storage threshold THIME :         5


 DENSITY CONVERGENCE CHECK SWITCHED ON !
 SCF CONVERGENCE IF RMS(delta[D]) <     0.1000000000E-06


 symmetry group of the molecule :   c1 

 the group has the following generators :
   c1(z)

    1 symmetry operations found

 there are 1 real representations :   a   

 maximum number of shells which are related by symmetry :  1


    mo occupation :
   irrep   mo's   occupied
    a      678       99
 
 number of basis functions   :          678
 number of occupied orbitals :           99
 

          ------------------------
          nuclear repulsion energy  :   2030.36454248    
          ------------------------

 
          -----------------
          -S,T+V- integrals
          -----------------

 1e-integrals will be neglected if expon. factor < 0.472028E-12
 
   Difference densities algorithm switched on.
   The maximal number of linear combinations of
   difference densities is          20 .

 automatic virtual orbital shift switched on 
      shift if e(lumo)-e(homo) < 0.10000000    


 DIIS switched on: error vector is FDS-SDF
 Max. Iterations for DIIS is     :   5
 DIIS matrix (see manual) 
    Scaling factor of diagonals  :  1.200
    threshold for scaling factor :  0.000

 scf convergence criterion : increment of total energy < .1000000D-06
                  and increment of one-electron energy < .1000000D-03


 <geterg> : there is no data group $energy 

  MOs are in ASCII format !


 reading orbital data $scfmo  from file mos . 

 orbital characterization : expanded
 
 mo provided and orthogonalized by Cholesky decomposition

 DSCF restart information will be dumped onto file mos

 
                                              current damping :  0.300
 ITERATION  ENERGY          1e-ENERGY        2e-ENERGY     RMS[dD(SAO)]   TOL
   1  -1142.7152981219    -5538.6641745     2365.5843339    0.000D+00 0.471D-11
          max. resid. norm for Fia-block=  3.646D-01 for orbital      6a         
          max. resid. fock norm         =  7.646D+00 for orbital    478a         
          Delta Eig. =   452.8032811107 eV 
 
                                              current damping :  0.250
 ITERATION  ENERGY          1e-ENERGY        2e-ENERGY     RMS[dD(SAO)]   TOL
   2  -1146.1831967195    -5576.5551216     2400.0073824    0.405D-01 0.470D-11
          Norm of current diis error:  3.1793    
          max. resid. norm for Fia-block=  1.125D-01 for orbital     43a         
          max. resid. fock norm         =  1.518D-01 for orbital    271a         
          Delta Eig. =   114.8696432503 eV 
 
                                              current damping :  0.150
 ITERATION  ENERGY          1e-ENERGY        2e-ENERGY     RMS[dD(SAO)]   TOL
   3  -1146.6579103683    -5580.3153312     2403.2928784    0.880D-02 0.315D-11
          Norm of current diis error:  1.0243    
          max. resid. norm for Fia-block=  3.778D-02 for orbital     37a         
          max. resid. fock norm         =  4.221D-02 for orbital     37a         
          Delta Eig. =    25.2457699650 eV 
 
                                              current damping :  0.100
 ITERATION  ENERGY          1e-ENERGY        2e-ENERGY     RMS[dD(SAO)]   TOL
   4  -1146.7280479615    -5583.6461513     2406.5535609    0.481D-02 0.241D-11
          Norm of current diis error: 0.22173    
          max. resid. norm for Fia-block=  9.685D-03 for orbital     57a         
          max. resid. fock norm         =  1.492D-02 for orbital     45a         
          Delta Eig. =     3.5237190953 eV 
 
                                              current damping :  0.100
 ITERATION  ENERGY          1e-ENERGY        2e-ENERGY     RMS[dD(SAO)]   TOL
   5  -1146.7335219259    -5583.7503358     2406.6522714    0.109D-02 0.217D-11
          Norm of current diis error: 0.65588E-01
          max. resid. norm for Fia-block=  3.732D-03 for orbital     91a         
          max. resid. fock norm         =  6.647D-03 for orbital    654a         
 mo-orthogonalization: Cholesky decomposition
          Delta Eig. =     0.5033160655 eV 
 
                                              current damping :  0.100
 ITERATION  ENERGY          1e-ENERGY        2e-ENERGY     RMS[dD(SAO)]   TOL
   6  -1146.7340973084    -5583.9287579     2406.8301181    0.203D-03 0.203D-11
          Norm of current diis error: 0.20442E-01
          max. resid. norm for Fia-block=  1.543D-03 for orbital     98a         
          max. resid. fock norm         =  1.803D-03 for orbital    654a         
          Delta Eig. =     0.0586643323 eV 
 
                                              current damping :  0.100
 ITERATION  ENERGY          1e-ENERGY        2e-ENERGY     RMS[dD(SAO)]   TOL
   7  -1146.7341860726    -5583.9311251     2406.8323966    0.725D-04 0.191D-11
          Norm of current diis error: 0.86279E-02
          max. resid. norm for Fia-block=  6.439D-04 for orbital     97a         
          max. resid. fock norm         =  6.813D-04 for orbital    654a         
          Delta Eig. =     0.0250629580 eV 
 
                                              current damping :  0.100
 ITERATION  ENERGY          1e-ENERGY        2e-ENERGY     RMS[dD(SAO)]   TOL
   8  -1146.7342035864    -5583.9354677     2406.8367216    0.278D-04 0.180D-11
          Norm of current diis error: 0.39925E-02
          max. resid. norm for Fia-block=  3.766D-04 for orbital     97a         
          max. resid. fock norm         =  3.987D-04 for orbital     97a         
          Delta Eig. =     0.0133790111 eV 
 
                                              current damping :  0.100
 ITERATION  ENERGY          1e-ENERGY        2e-ENERGY     RMS[dD(SAO)]   TOL
   9  -1146.7342079732    -5583.9423824     2406.8436320    0.113D-04 0.172D-11
          Norm of current diis error: 0.23180E-02
          max. resid. norm for Fia-block=  2.444D-04 for orbital     93a         
          max. resid. fock norm         =  2.495D-04 for orbital     93a         
          Delta Eig. =     0.0094928451 eV 
 
                                              current damping :  0.150
 ITERATION  ENERGY          1e-ENERGY        2e-ENERGY     RMS[dD(SAO)]   TOL
  10  -1146.7342095133    -5583.9418937     2406.8431417    0.667D-05 0.165D-11
          Norm of current diis error: 0.12501E-02
          max. resid. norm for Fia-block=  1.533D-04 for orbital     93a         
          max. resid. fock norm         =  1.609D-04 for orbital    102a         
 mo-orthogonalization: Cholesky decomposition
          Delta Eig. =     0.0041527132 eV 
 
                                              current damping :  0.200
 ITERATION  ENERGY          1e-ENERGY        2e-ENERGY     RMS[dD(SAO)]   TOL
  11  -1146.7342100253    -5583.9428106     2406.8440581    0.406D-05 0.158D-11
          Norm of current diis error: 0.58226E-03
          max. resid. norm for Fia-block=  8.499D-05 for orbital     93a         
          max. resid. fock norm         =  8.553D-05 for orbital     93a         
          Delta Eig. =     0.0015275367 eV 
 
                                              current damping :  0.100
 ITERATION  ENERGY          1e-ENERGY        2e-ENERGY     RMS[dD(SAO)]   TOL
  12  -1146.7342101407    -5583.9434874     2406.8447348    0.196D-05 0.152D-11
          Norm of current diis error: 0.26630E-03
          max. resid. norm for Fia-block=  3.613D-05 for orbital     97a         
          max. resid. fock norm         =  3.743D-05 for orbital    102a         
          Delta Eig. =     0.0009047582 eV 
 
                                              current damping :  0.150
 ITERATION  ENERGY          1e-ENERGY        2e-ENERGY     RMS[dD(SAO)]   TOL
  13  -1146.7342101640    -5583.9433338     2406.8445811    0.978D-06 0.148D-11
          Norm of current diis error: 0.11157E-03
          max. resid. norm for Fia-block=  1.278D-05 for orbital     97a         
          max. resid. fock norm         =  1.348D-05 for orbital    100a         
          Delta Eig. =     0.0004628580 eV 
 
                                              current damping :  0.200
 ITERATION  ENERGY          1e-ENERGY        2e-ENERGY     RMS[dD(SAO)]   TOL
  14  -1146.7342101667    -5583.9434435     2406.8446909    0.373D-06 0.145D-11
          Norm of current diis error: 0.52657E-04
          max. resid. norm for Fia-block=  7.619D-06 for orbital     89a         
          max. resid. fock norm         =  9.707D-06 for orbital    279a         
          Delta Eig. =     0.0000996543 eV 

 ENERGY & DENSITY CONVERGED !

 
                                              current damping :  0.250
 ITERATION  ENERGY          1e-ENERGY        2e-ENERGY     RMS[dD(SAO)]   TOL
  15  -1146.7342101683    -5583.9434297     2406.8446770    0.169D-06 0.142D-11
          max. resid. norm for Fia-block=  2.834D-06 for orbital     89a         
          max. resid. fock norm         =  4.956D-06 for orbital    299a         

 convergence criteria satisfied after 15 iterations


   *************************************************************************
   VE                                                                       
   *************************************************************************


                  ------------------------------------------ 
                 |  total energy      =  -1146.73421016829  |
                  ------------------------------------------ 
                 :  kinetic energy    =   1146.81924074152  :
                 :  potential energy  =  -2293.55345090980  :
                 :  virial theorem    =      2.00007415020  :
                 :  wavefunction norm =      1.00000000000  :
                  .......................................... 


 <geterg> : there is no data group $energy 


 <skperg> : $end is missing 


 orbitals $scfmo  will be written to file mos

    irrep                 95a         96a         97a         98a         99a   
 eigenvalues H         -0.34806    -0.34772    -0.32927    -0.30126    -0.28399
            eV          -9.4712     -9.4621     -8.9600     -8.1978     -7.7278
 occupation              2.0000      2.0000      2.0000      2.0000      2.0000 

    irrep                100a        101a        102a        103a        104a   
 eigenvalues H          0.05390     0.07410     0.10136     0.11629     0.11941
            eV           1.4666      2.0164      2.7581      3.1644      3.2492
 
 
 
 
 ==============================================================================
                           electrostatic moments
 ==============================================================================
 
              nuc           elec       ->  total
 ------------------------------------------------------------------------------
                          charge      
 ------------------------------------------------------------------------------
         198.000000    -198.000000       0.000000
 
 ------------------------------------------------------------------------------
                       dipole moment  
 ------------------------------------------------------------------------------
   x       8.011836      -8.030831      -0.018995
   y      31.153335     -31.227408      -0.074072
   z       0.000000       0.000000       0.000000
 
   | dipole moment | =     0.0765 a.u. =     0.1944 debye 
 
 ------------------------------------------------------------------------------
                     quadrupole moment
 ------------------------------------------------------------------------------
  xx   31388.391038  -31484.110409     -95.719371
  yy    2844.470171   -2953.266026    -108.795855
  zz       0.000000    -140.797962    -140.797962
  xy     -10.597242      10.479282      -0.117960
  xz       0.000000       0.000000       0.000000
  yz       0.000000       0.000000       0.000000
 
     1/3  trace=    -115.104396
     anisotropy=      40.170214
 
 ==============================================================================
 


    ------------------------------------------------------------------------
         total  cpu-time :  1 hours  9 minutes and  9 seconds
         total wall-time :  9 minutes and 23 seconds
    ------------------------------------------------------------------------


   ****  dscf : all done  ****


    2013-10-25 11:01:45.691 

