fort.7
USERSCR REMOVED
gamess.dat
----- GAMESS execution script 'rungms' -----
This job is running on host eam
under operating system Linux at Wed Apr 30 16:22:40 CST 2014
Available scratch disk space (Kbyte units) at beginning of the job is
Filesystem     1K-blocks      Used Available Use% Mounted on
/dev/sda3      949976156 233268852 668451256  26% /
GAMESS temporary binary files will be written to /tmp/dulikai
GAMESS supplementary output files will be written to /home/dulikai/tree/shmd/trunk/test/1ps-gms/QC_TMP/GMS_TMP/scr
Copying input file gamess.inp to your run's scratch directory...
cp gamess.inp /tmp/dulikai/gamess.F05
unset echo
READ GMS-FILES.CSH
/home/dulikai/opt/gamess/ddikick.x /home/dulikai/opt/gamess/gamess.06.x gamess -ddi 1 2 eam:cpus=2 -scr /tmp/dulikai

 Distributed Data Interface kickoff program.
 Initiating 2 compute processes on 1 nodes to run the following command:
 /home/dulikai/opt/gamess/gamess.06.x gamess 

          ******************************************************
          *         GAMESS VERSION =  1 MAY 2013 (R1)          *
          *             FROM IOWA STATE UNIVERSITY             *
          * M.W.SCHMIDT, K.K.BALDRIDGE, J.A.BOATZ, S.T.ELBERT, *
          *   M.S.GORDON, J.H.JENSEN, S.KOSEKI, N.MATSUNAGA,   *
          *          K.A.NGUYEN, S.J.SU, T.L.WINDUS,           *
          *       TOGETHER WITH M.DUPUIS, J.A.MONTGOMERY       *
          *         J.COMPUT.CHEM.  14, 1347-1363(1993)        *
          **************** 64 BIT LINUX VERSION ****************

  SINCE 1993, STUDENTS AND POSTDOCS WORKING AT IOWA STATE UNIVERSITY
  AND ALSO IN THEIR VARIOUS JOBS AFTER LEAVING ISU HAVE MADE IMPORTANT
  CONTRIBUTIONS TO THE CODE:
     IVANA ADAMOVIC, CHRISTINE AIKENS, YURI ALEXEEV, POOJA ARORA,
     ANDREY ASADCHEV, ROB BELL, PRADIPTA BANDYOPADHYAY, JONATHAN BENTZ,
     BRETT BODE, GALINA CHABAN, WEI CHEN, CHEOL HO CHOI, PAUL DAY,
     ALBERT DEFUSCO, TIM DUDLEY, DMITRI FEDOROV, GRAHAM FLETCHER,
     MARK FREITAG, KURT GLAESEMANN, DAN KEMP, GRANT MERRILL,
     NORIYUKI MINEZAWA, JONATHAN MULLIN, TAKESHI NAGATA,
     SEAN NEDD, HEATHER NETZLOFF, BOSILJKA NJEGIC, RYAN OLSON, MIKE PAK,
     JIM SHOEMAKER, LYUDMILA SLIPCHENKO, SAROM SOK, JIE SONG,
     TETSUYA TAKETSUGU, SIMON WEBB, SOOHAENG YOO, FEDERICO ZAHARIEV

  ADDITIONAL CODE HAS BEEN PROVIDED BY COLLABORATORS IN OTHER GROUPS:
     IOWA STATE UNIVERSITY:
          JOE IVANIC, LAIMUTIS BYTAUTAS, KLAUS RUEDENBERG
     UNIVERSITY OF TOKYO: KIMIHIKO HIRAO, TAKAHITO NAKAJIMA,
          TAKAO TSUNEDA, MUNEAKI KAMIYA, SUSUMU YANAGISAWA,
          KIYOSHI YAGI, MAHITO CHIBA, SEIKEN TOKURA, NAOAKI KAWAKAMI
     UNIVERSITY OF AARHUS: FRANK JENSEN
     UNIVERSITY OF IOWA: VISVALDAS KAIRYS, HUI LI
     NATIONAL INST. OF STANDARDS AND TECHNOLOGY: WALT STEVENS, DAVID GARMER
     UNIVERSITY OF PISA: BENEDETTA MENNUCCI, JACOPO TOMASI
     UNIVERSITY OF MEMPHIS: HENRY KURTZ, PRAKASHAN KORAMBATH
     UNIVERSITY OF ALBERTA: TOBY ZENG, MARIUSZ KLOBUKOWSKI
     UNIVERSITY OF NEW ENGLAND: MARK SPACKMAN
     MIE UNIVERSITY: HIROAKI UMEDA
     MICHIGAN STATE UNIVERSITY:
          KAROL KOWALSKI, MARTA WLOCH, JEFFREY GOUR, JESSE LUTZ,
          WEI LI, PIOTR PIECUCH
     UNIVERSITY OF SILESIA: MONIKA MUSIAL, STANISLAW KUCHARSKI
     FACULTES UNIVERSITAIRES NOTRE-DAME DE LA PAIX:
          OLIVIER QUINET, BENOIT CHAMPAGNE
     UNIVERSITY OF CALIFORNIA - SANTA BARBARA: BERNARD KIRTMAN
     INSTITUTE FOR MOLECULAR SCIENCE:
          KAZUYA ISHIMURA, MICHIO KATOUDA, AND SHIGERU NAGASE
     UNIVERSITY OF NOTRE DAME: DAN CHIPMAN
     KYUSHU UNIVERSITY:
          HARUYUKI NAKANO,
          FENG LONG GU, JACEK KORCHOWIEC, MARCIN MAKOWSKI, AND YURIKO AOKI,
          HIROTOSHI MORI AND EISAKU MIYOSHI
     PENNSYLVANIA STATE UNIVERSITY:
          TZVETELIN IORDANOV, CHET SWALINA, JONATHAN SKONE,
          SHARON HAMMES-SCHIFFER
     WASEDA UNIVERSITY:
          MASATO KOBAYASHI, TOMOKO AKAMA, TSUGUKI TOUMA,
          TAKESHI YOSHIKAWA, YASUHIRO IKABATA, HIROMI NAKAI
     NANJING UNIVERSITY: SHUHUA LI
     UNIVERSITY OF NEBRASKA:
          PEIFENG SU, DEJUN SI, NANDUN THELLAMUREGE, YALI WANG, HUI LI
     UNIVERSITY OF ZURICH:
          ROBERTO PEVERATI, KIM BALDRIDGE
     N. COPERNICUS UNIVERSITY AND JACKSON STATE UNIVERSITY:
          MARIA BARYSZ


 PARALLEL VERSION RUNNING ON     2 PROCESSORS IN     1 NODES.

 EXECUTION OF GAMESS BEGUN Wed Apr 30 16:22:41 2014

            ECHO OF THE FIRST FEW INPUT CARDS -
 INPUT CARD> $guess  guess=huckel $end                                                      
 INPUT CARD> $basis  gbasis=N31 ngauss=6 diffsp=.T. ndfunc=1 $end                           
 INPUT CARD> $CONTRL SCFTYP=RHF DFTTYP=B3LYP MOLPLT=.FALSE.                                 
 INPUT CARD>         ICHARG=1 TDDFT=EXCITE RUNTYP=GRADIENT NPRINT=3                         
 INPUT CARD>         MULT=1  $END                                                           
 INPUT CARD> $system timlim=4 mwords=100 memddi=200 $end                                    
 INPUT CARD> $TDDFT IROOT=1 TAMMD=.FALSE. NSTATE=2                                          
 INPUT CARD>         MULT=1  $END                                                           
 INPUT CARD> $data                                                                          
 INPUT CARD>energy & gradient..                                                             
 INPUT CARD>C1                                                                              
 INPUT CARD>c            6.0  -3.0453098   0.3913462   0.2239713                            
 INPUT CARD>n            7.0  -0.6860475   0.0853273   0.0499178                            
 INPUT CARD>h            1.0  -3.5081203   0.9918811   1.0618490                            
 INPUT CARD>h            1.0  -3.7578053  -0.0023600  -0.5598433                            
 INPUT CARD>h            1.0  -0.2656266  -0.4378250  -0.7545277                            
 INPUT CARD>h            1.0  -0.0329221   0.5063990   0.7524858                            
 INPUT CARD>$end                                                                            
  100000000 WORDS OF MEMORY AVAILABLE

     BASIS OPTIONS
     -------------
     GBASIS=N31          IGAUSS=       6      POLAR=POPN31  
     NDFUNC=       1     NFFUNC=       0     DIFFSP=       T
     NPFUNC=       0      DIFFS=       F     BASNAM=        


     RUN TITLE
     ---------
 energy & gradient..                                                             

 THE POINT GROUP OF THE MOLECULE IS C1      
 THE ORDER OF THE PRINCIPAL AXIS IS     0

 ATOM      ATOMIC                      COORDINATES (BOHR)
           CHARGE         X                   Y                   Z
 C           6.0    -5.7548010697        0.7395370843        0.4232443861
 N           7.0    -1.2964417896        0.1612452163        0.0943309639
 H           1.0    -6.6293860990        1.8743834914        2.0066036503
 H           1.0    -7.1012223322       -0.0044597533       -1.0579504331
 H           1.0    -0.5019614891       -0.8273692806       -1.4258506031
 H           1.0    -0.0622137479        0.9569553505        1.4219919717

          INTERNUCLEAR DISTANCES (ANGS.)
          ------------------------------

                1 C          2 N          3 H          4 H          5 H     

   1 C       0.0000000    2.3853848 *  1.1299888 *  1.1300530 *  3.0613108  
   2 N       2.3853848 *  0.0000000    3.1320823    3.1329209    1.0476520 *
   3 H       1.1299888 *  3.1320823    0.0000000    1.9185265 *  3.9820911  
   4 H       1.1300530 *  3.1329209    1.9185265 *  0.0000000    3.5246055  
   5 H       3.0613108    1.0476520 *  3.9820911    3.5246055    0.0000000  
   6 H       3.0605628    1.0476049 *  3.5225560    3.9819340    1.7935440 *

                6 H     

   1 C       3.0605628  
   2 N       1.0476049 *
   3 H       3.5225560  
   4 H       3.9819340  
   5 H       1.7935440 *
   6 H       0.0000000  

  * ... LESS THAN  3.000


     ATOMIC BASIS SET
     ----------------
 THE CONTRACTED PRIMITIVE FUNCTIONS HAVE BEEN UNNORMALIZED
 THE CONTRACTED BASIS FUNCTIONS ARE NOW NORMALIZED TO UNITY

  SHELL TYPE  PRIMITIVE        EXPONENT          CONTRACTION COEFFICIENT(S)

 C         

      1   S       1          3047.5248800    0.001834737132
      1   S       2           457.3695180    0.014037322813
      1   S       3           103.9486850    0.068842622264
      1   S       4            29.2101553    0.232184443216
      1   S       5             9.2866630    0.467941348435
      1   S       6             3.1639270    0.362311985337

      2   L       7             7.8682723   -0.119332419775    0.068999066591
      2   L       8             1.8812885   -0.160854151696    0.316423960957
      2   L       9             0.5442493    1.143456437840    0.744308290898

      3   L      10             0.1687145    1.000000000000    1.000000000000

      4   L      11             0.0438000    1.000000000000    1.000000000000

      5   D      12             0.8000000    1.000000000000

 N         

      6   S      13          4173.5114600    0.001834772160
      6   S      14           627.4579110    0.013994627002
      6   S      15           142.9020930    0.068586551812
      6   S      16            40.2343293    0.232240873040
      6   S      17            12.8202129    0.469069948082
      6   S      18             4.3904370    0.360455199063

      7   L      19            11.6263619   -0.114961181702    0.067579743878
      7   L      20             2.7162798   -0.169117478561    0.323907295893
      7   L      21             0.7722184    1.145851947027    0.740895139755

      8   L      22             0.2120315    1.000000000000    1.000000000000

      9   L      23             0.0639000    1.000000000000    1.000000000000

     10   D      24             0.8000000    1.000000000000

 H         

     11   S      25            18.7311370    0.033494604338
     11   S      26             2.8253944    0.234726953484
     11   S      27             0.6401217    0.813757326146

     12   S      28             0.1612778    1.000000000000

 H         

     13   S      29            18.7311370    0.033494604338
     13   S      30             2.8253944    0.234726953484
     13   S      31             0.6401217    0.813757326146

     14   S      32             0.1612778    1.000000000000

 H         

     15   S      33            18.7311370    0.033494604338
     15   S      34             2.8253944    0.234726953484
     15   S      35             0.6401217    0.813757326146

     16   S      36             0.1612778    1.000000000000

 H         

     17   S      37            18.7311370    0.033494604338
     17   S      38             2.8253944    0.234726953484
     17   S      39             0.6401217    0.813757326146

     18   S      40             0.1612778    1.000000000000

 TOTAL NUMBER OF BASIS SET SHELLS             =   18
 NUMBER OF CARTESIAN GAUSSIAN BASIS FUNCTIONS =   46
 NUMBER OF ELECTRONS                          =   16
 CHARGE OF MOLECULE                           =    1
 SPIN MULTIPLICITY                            =    1
 NUMBER OF OCCUPIED ORBITALS (ALPHA)          =    8
 NUMBER OF OCCUPIED ORBITALS (BETA )          =    8
 TOTAL NUMBER OF ATOMS                        =    6
 THE NUCLEAR REPULSION ENERGY IS       27.5851120569

     LEBEDEV GRID-BASED DFT OPTIONS
     ------------------------------
     DFTTYP=B3LYP   
     NRAD  =      96     NLEB  =     302
     NRAD0 =      24     NLEB0 =     110
     SWOFF =    5.00E-03 (PURE SCF -> DFT)
     SWITCH=    3.00E-04 (COARSE -> TIGHT GRID)
     THRESH=    0.00E+00 GTHRE=    1.00E+00

 GRIMME'S EMPIRICAL DISPERSION CORRECTION= F

     $CONTRL OPTIONS
     ---------------
 SCFTYP=RHF          RUNTYP=GRADIENT     EXETYP=RUN     
 MPLEVL=       0     CITYP =NONE         CCTYP =NONE         VBTYP =NONE    
 DFTTYP=B3LYP        TDDFT =EXCITE  
 MULT  =       1     ICHARG=       1     NZVAR =       0     COORD =UNIQUE  
 PP    =NONE         RELWFN=NONE         LOCAL =NONE         NUMGRD=       F
 ISPHER=      -1     NOSYM =       0     MAXIT =      30     UNITS =ANGS    
 PLTORB=       F     MOLPLT=       F     AIMPAC=       F     FRIEND=        
 NPRINT=       3     IREST =       0     GEOM  =INPUT   
 NORMF =       0     NORMP =       0     ITOL  =      20     ICUT  =       9
 INTTYP=BEST         GRDTYP=BEST         QMTTOL= 1.0E-06

     $SYSTEM OPTIONS
     ---------------
  REPLICATED MEMORY=   100000000 WORDS (ON EVERY NODE).
 DISTRIBUTED MEMDDI=         200 MILLION WORDS IN AGGREGATE,
 MEMDDI DISTRIBUTED OVER   2 PROCESSORS IS   100000000 WORDS/PROCESSOR.
 TOTAL MEMORY REQUESTED ON EACH PROCESSOR=   200000000 WORDS.
 TIMLIM=           4.00 MINUTES, OR       0.0 DAYS.
 PARALL= T  BALTYP=  DLB     KDIAG=    0  COREFL= F
 MXSEQ2=     300 MXSEQ3=     150

          ----------------
          PROPERTIES INPUT
          ----------------

     MOMENTS            FIELD           POTENTIAL          DENSITY
 IEMOM =       1   IEFLD =       0   IEPOT =       0   IEDEN =       0
 WHERE =COMASS     WHERE =NUCLEI     WHERE =NUCLEI     WHERE =NUCLEI  
 OUTPUT=BOTH       OUTPUT=BOTH       OUTPUT=BOTH       OUTPUT=BOTH    
 IEMINT=       0   IEFINT=       0                     IEDINT=       0
                                                       MORB  =       0
          EXTRAPOLATION IN EFFECT
          DIIS IN EFFECT
 ORBITAL PRINTING OPTION: NPREO=     1    46     2     1

     -------------------------------
     INTEGRAL TRANSFORMATION OPTIONS
     -------------------------------
     NWORD  =            0
     CUTOFF = 1.0E-09     MPTRAN =       0
     DIRTRF =       F     AOINTS =DUP     

          ----------------------
          INTEGRAL INPUT OPTIONS
          ----------------------
 NOPK  =       1 NORDER=       0 SCHWRZ=       T

          ----------------------
          TDDFT INPUT PARAMETERS
          ----------------------
 NSTATE=       2  IROOT=       1   MULT=       1
 MAXVEC=      50 NTRIAL=       5 CNVTOL=  1.00E-07
 TDPRP =       F
   NRAD=      48   NLEB=     110

     ------------------------------------------
     THE POINT GROUP IS C1 , NAXIS= 0, ORDER= 1
     ------------------------------------------

     DIMENSIONS OF THE SYMMETRY SUBSPACES ARE
 A   =   46

 ..... DONE SETTING UP THE RUN .....
 CPU     0: STEP CPU TIME=     0.00 TOTAL CPU TIME=        0.0 (    0.0 MIN)
 TOTAL WALL CLOCK TIME=        0.0 SECONDS, CPU UTILIZATION IS   0.00%

                    --------------------------------
                    SINGLE POINT ENERGY AND GRADIENT
                    --------------------------------

          ********************
          1 ELECTRON INTEGRALS
          ********************
 OVERLAP MATRIX

                      1          2          3          4          5

    1  C  1  S    1.000000
    2  C  1  S    0.219059   1.000000
    3  C  1  X   -0.000000   0.000000   1.000000
    4  C  1  Y    0.000000   0.000000  -0.000000   1.000000
    5  C  1  Z   -0.000000   0.000000   0.000000   0.000000   1.000000
    6  C  1  S    0.184261   0.812273   0.000000   0.000000   0.000000
    7  C  1  X   -0.000000  -0.000000   0.569754   0.000000   0.000000
    8  C  1  Y   -0.000000   0.000000   0.000000   0.569754   0.000000
    9  C  1  Z    0.000000   0.000000   0.000000   0.000000   0.569754
   10  C  1  S    0.069772   0.402091   0.000000  -0.000000   0.000000
   11  C  1  X   -0.000000  -0.000000   0.164679  -0.000000   0.000000
   12  C  1  Y    0.000000   0.000000  -0.000000   0.164679   0.000000
   13  C  1  Z    0.000000   0.000000   0.000000   0.000000   0.164679
   14  C  1 XX    0.079103   0.710235   0.000000   0.000000  -0.000000
   15  C  1 YY    0.079103   0.710235   0.000000   0.000000  -0.000000
   16  C  1 ZZ    0.079103   0.710235   0.000000   0.000000  -0.000000
   17  C  1 XY   -0.000000   0.000000   0.000000   0.000000   0.000000
   18  C  1 XZ    0.000000  -0.000000  -0.000000   0.000000   0.000000
   19  C  1 YZ    0.000000  -0.000000   0.000000  -0.000000   0.000000
   20  N  2  S    0.000000   0.000015   0.000058  -0.000007  -0.000004
   21  N  2  S    0.000001   0.001935   0.004868  -0.000631  -0.000359
   22  N  2  X   -0.000005  -0.004136  -0.009710   0.001366   0.000777
   23  N  2  Y    0.000001   0.000536   0.001366   0.000646  -0.000101
   24  N  2  Z    0.000000   0.000305   0.000777  -0.000101   0.000766
   25  N  2  S    0.003524   0.041945   0.056576  -0.007339  -0.004174
   26  N  2  X   -0.013804  -0.122443  -0.142551   0.022065   0.012550
   27  N  2  Y    0.001791   0.015882   0.022065   0.024697  -0.001628
   28  N  2  Z    0.001018   0.009033   0.012550  -0.001628   0.026633
   29  N  2  S    0.025575   0.159580   0.085302  -0.011065  -0.006293
   30  N  2  X   -0.056839  -0.319769  -0.097698   0.022490   0.012792
   31  N  2  Y    0.007373   0.041477   0.022490   0.072772  -0.001659
   32  N  2  Z    0.004193   0.023591   0.012792  -0.001659   0.074746
   33  N  2 XX    0.000016   0.010309   0.022861  -0.003444  -0.001959
   34  N  2 YY    0.000000   0.001214   0.003104   0.000076  -0.000229
   35  N  2 ZZ    0.000000   0.001109   0.002833  -0.000367   0.000063
   36  N  2 XY   -0.000004  -0.002078  -0.004943  -0.002501   0.000395
   37  N  2 XZ   -0.000002  -0.001182  -0.002812   0.000395  -0.002972
   38  N  2 YZ    0.000000   0.000153   0.000395   0.000185   0.000385
   39  H  3  S    0.027379   0.249188  -0.140932   0.182870   0.255144
   40  H  3  S    0.087760   0.458067  -0.108377   0.140628   0.196207
   41  H  4  S    0.027371   0.249149  -0.216926  -0.119868  -0.238640
   42  H  4  S    0.087753   0.458038  -0.166835  -0.092189  -0.183535
   43  H  5  S    0.000000   0.000049   0.000134  -0.000040  -0.000047
   44  H  5  S    0.000976   0.013155   0.016803  -0.005012  -0.005915
   45  H  6  S    0.000000   0.000049   0.000146   0.000006   0.000026
   46  H  6  S    0.000978   0.013182   0.018247   0.000697   0.003201

                      6          7          8          9         10

    6  C  1  S    1.000000
    7  C  1  X    0.000000   1.000000
    8  C  1  Y    0.000000   0.000000   1.000000
    9  C  1  Z    0.000000   0.000000   0.000000   1.000000
   10  C  1  S    0.727666   0.000000   0.000000   0.000000   1.000000
   11  C  1  X    0.000000   0.588690   0.000000   0.000000   0.000000
   12  C  1  Y    0.000000   0.000000   0.588690   0.000000   0.000000
   13  C  1  Z    0.000000   0.000000   0.000000   0.588690   0.000000
   14  C  1 XX    0.629936   0.000000   0.000000   0.000000   0.323540
   15  C  1 YY    0.629936   0.000000   0.000000   0.000000   0.323540
   16  C  1 ZZ    0.629936   0.000000   0.000000   0.000000   0.323540
   17  C  1 XY    0.000000   0.000000   0.000000   0.000000   0.000000
   18  C  1 XZ    0.000000   0.000000   0.000000   0.000000   0.000000
   19  C  1 YZ    0.000000   0.000000   0.000000   0.000000   0.000000
   20  N  2  S    0.005192   0.018510  -0.002401  -0.001366   0.022632
   21  N  2  S    0.043588   0.129789  -0.016835  -0.009575   0.138542
   22  N  2  X   -0.045631  -0.113882   0.018004   0.010240  -0.044687
   23  N  2  Y    0.005919   0.018004   0.022583  -0.001328   0.005796
   24  N  2  Z    0.003366   0.010240  -0.001328   0.024162   0.003297
   25  N  2  S    0.146770   0.299354  -0.038829  -0.022085   0.312733
   26  N  2  X   -0.267031  -0.398820   0.070645   0.040180  -0.219836
   27  N  2  Y    0.034636   0.070645   0.136654  -0.005212   0.028515
   28  N  2  Z    0.019700   0.040180  -0.005212   0.142853   0.016218
   29  N  2  S    0.328918   0.330927  -0.042924  -0.024414   0.574281
   30  N  2  X   -0.537723  -0.247374   0.070174   0.039913  -0.526427
   31  N  2  Y    0.069748   0.070174   0.284532  -0.005177   0.068283
   32  N  2  Z    0.039670   0.039913  -0.005177   0.290690   0.038837
   33  N  2 XX    0.080507   0.196134  -0.031585  -0.017964   0.151723
   34  N  2 YY    0.037862   0.114519  -0.008710  -0.008449   0.139358
   35  N  2 ZZ    0.037368   0.113026  -0.014660  -0.004844   0.139215
   36  N  2 XY   -0.009745  -0.024153  -0.037202   0.002174  -0.002825
   37  N  2 XZ   -0.005542  -0.013738   0.002174  -0.039788  -0.001607
   38  N  2 YZ    0.000719   0.002174   0.002745   0.005161   0.000208
   39  H  3  S    0.361108  -0.209402   0.271716   0.379103   0.255523
   40  H  3  S    0.686352  -0.241005   0.312724   0.436318   0.634223
   41  H  4  S    0.361083  -0.322350  -0.178122  -0.354617   0.255517
   42  H  4  S    0.686323  -0.371011  -0.205011  -0.408148   0.634211
   43  H  5  S    0.007200   0.024833  -0.007408  -0.008742   0.077675
   44  H  5  S    0.063297   0.133492  -0.039820  -0.046992   0.234321
   45  H  6  S    0.007216   0.026972   0.001030   0.004732   0.077727
   46  H  6  S    0.063383   0.144863   0.005533   0.025416   0.234453

                     11         12         13         14         15

   11  C  1  X    1.000000
   12  C  1  Y    0.000000   1.000000
   13  C  1  Z    0.000000   0.000000   1.000000
   14  C  1 XX    0.000000   0.000000   0.000000   1.000000
   15  C  1 YY    0.000000   0.000000   0.000000   0.333333   1.000000
   16  C  1 ZZ    0.000000   0.000000   0.000000   0.333333   0.333333
   17  C  1 XY    0.000000   0.000000   0.000000   0.000000   0.000000
   18  C  1 XZ    0.000000   0.000000   0.000000   0.000000   0.000000
   19  C  1 YZ    0.000000   0.000000   0.000000   0.000000   0.000000
   20  N  2  S    0.041939  -0.005440  -0.003094   0.000008   0.000000
   21  N  2  S    0.243850  -0.031630  -0.017990   0.003678   0.000287
   22  N  2  X   -0.031313   0.010274   0.005843  -0.008426  -0.000743
   23  N  2  Y    0.010274   0.046560  -0.000758   0.001242  -0.000052
   24  N  2  Z    0.005843  -0.000758   0.047461   0.000706   0.000055
   25  N  2  S    0.483685  -0.062739  -0.035684   0.061517   0.022901
   26  N  2  X   -0.104400   0.044102   0.025084  -0.161399  -0.074330
   27  N  2  Y    0.044102   0.229886  -0.003254   0.025898   0.004678
   28  N  2  Z    0.025084  -0.003254   0.233756   0.014730   0.005484
   29  N  2  S    0.635845  -0.082475  -0.046909   0.144537   0.122060
   30  N  2  X   -0.018671   0.075603   0.043000  -0.261119  -0.254774
   31  N  2  Y    0.075603   0.554384  -0.005578   0.039132   0.027784
   32  N  2  Z    0.043000  -0.005578   0.561018   0.022257   0.018796
   33  N  2 XX    0.241480  -0.034819  -0.019804   0.022048   0.002108
   34  N  2 YY    0.246561  -0.028485  -0.018190   0.002108   0.000250
   35  N  2 ZZ    0.246307  -0.031948  -0.016182   0.001807   0.000136
   36  N  2 XY   -0.001971  -0.022697   0.000369  -0.005239   0.000257
   37  N  2 XZ   -0.001121   0.000369  -0.023136  -0.002980  -0.000253
   38  N  2 YZ    0.000369   0.001674   0.003001   0.000438  -0.000019
   39  H  3  S   -0.087986   0.114170   0.159292   0.158517   0.195217
   40  H  3  S   -0.182586   0.236920   0.330555   0.350591   0.360119
   41  H  4  S   -0.135452  -0.074847  -0.149010   0.232011   0.143657
   42  H  4  S   -0.281085  -0.155320  -0.309221   0.369658   0.346716
   43  H  5  S    0.160598  -0.047906  -0.056533   0.000059   0.000008
   44  H  5  S    0.405162  -0.120859  -0.142625   0.017336   0.007877
   45  H  6  S    0.174160   0.006652   0.030556   0.000069   0.000004
   46  H  6  S    0.439329   0.016779   0.077079   0.019189   0.006986

                     16         17         18         19         20

   16  C  1 ZZ    1.000000
   17  C  1 XY    0.000000   1.000000
   18  C  1 XZ    0.000000   0.000000   1.000000
   19  C  1 YZ    0.000000   0.000000   0.000000   1.000000
   20  N  2  S    0.000000  -0.000002  -0.000001   0.000000   1.000000
   21  N  2  S    0.000248  -0.000775  -0.000441   0.000057   0.222216
   22  N  2  X   -0.000641   0.001889   0.001074  -0.000149   0.000000
   23  N  2  Y    0.000083   0.000732  -0.000149  -0.000054  -0.000000
   24  N  2  Z   -0.000037  -0.000149   0.000909  -0.000118  -0.000000
   25  N  2  S    0.022454  -0.008824  -0.005019   0.000651   0.171869
   26  N  2  X   -0.072879   0.024341   0.013845  -0.002113   0.000000
   27  N  2  Y    0.009453   0.029422  -0.002113  -0.002171   0.000000
   28  N  2  Z    0.002554  -0.002113   0.031936  -0.004142   0.000000
   29  N  2  S    0.121799  -0.005136  -0.002921   0.000379   0.072359
   30  N  2  X   -0.254230   0.006163   0.003506  -0.000791   0.000000
   31  N  2  Y    0.032976   0.033746  -0.000791  -0.002490   0.000000
   32  N  2  Z    0.015763  -0.000791   0.034686  -0.004499  -0.000000
   33  N  2 XX    0.001807  -0.005239  -0.002980   0.000438   0.050413
   34  N  2 YY    0.000136   0.000257  -0.000253  -0.000019   0.050413
   35  N  2 ZZ    0.000279  -0.000382   0.000183  -0.000024   0.050413
   36  N  2 XY   -0.000382  -0.003222   0.000669   0.000254  -0.000000
   37  N  2 XZ    0.000183   0.000669  -0.004018   0.000556  -0.000000
   38  N  2 YZ   -0.000024   0.000254   0.000556   0.000198   0.000000
   39  H  3  S    0.280772  -0.120638  -0.168317   0.218405   0.000000
   40  H  3  S    0.382330  -0.031320  -0.043698   0.056701   0.000575
   41  H  4  S    0.258749   0.121733   0.242353   0.133918   0.000000
   42  H  4  S    0.376600   0.031608   0.062927   0.034772   0.000573
   43  H  5  S    0.000010  -0.000028  -0.000034   0.000010   0.029907
   44  H  5  S    0.008240  -0.005364  -0.006330   0.001888   0.076464
   45  H  6  S    0.000006   0.000004   0.000020   0.000001   0.029914
   46  H  6  S    0.007345   0.000808   0.003714   0.000142   0.076468

                     21         22         23         24         25

   21  N  2  S    1.000000
   22  N  2  X    0.000000   1.000000
   23  N  2  Y    0.000000   0.000000   1.000000
   24  N  2  Z    0.000000  -0.000000   0.000000   1.000000
   25  N  2  S    0.775507   0.000000  -0.000000   0.000000   1.000000
   26  N  2  X    0.000000   0.519296   0.000000   0.000000   0.000000
   27  N  2  Y   -0.000000   0.000000   0.519296   0.000000   0.000000
   28  N  2  Z    0.000000   0.000000   0.000000   0.519296   0.000000
   29  N  2  S    0.409558  -0.000000   0.000000   0.000000   0.774942
   30  N  2  X    0.000000   0.168972  -0.000000  -0.000000   0.000000
   31  N  2  Y   -0.000000  -0.000000   0.168972   0.000000   0.000000
   32  N  2  Z   -0.000000  -0.000000   0.000000   0.168972   0.000000
   33  N  2 XX    0.636041   0.000000   0.000000   0.000000   0.670250
   34  N  2 YY    0.636041   0.000000  -0.000000   0.000000   0.670250
   35  N  2 ZZ    0.636041   0.000000   0.000000   0.000000   0.670250
   36  N  2 XY    0.000000   0.000000   0.000000   0.000000   0.000000
   37  N  2 XZ    0.000000   0.000000   0.000000   0.000000   0.000000
   38  N  2 YZ    0.000000   0.000000   0.000000   0.000000   0.000000
   39  H  3  S    0.000004  -0.000012   0.000004   0.000004   0.002556
   40  H  3  S    0.006730  -0.007860   0.002525   0.002818   0.039836
   41  H  4  S    0.000004  -0.000013  -0.000000  -0.000003   0.002549
   42  H  4  S    0.006714  -0.008534  -0.000244  -0.001694   0.039767
   43  H  5  S    0.238713   0.122673  -0.152648  -0.234726   0.391304
   44  H  5  S    0.410614   0.078125  -0.097215  -0.149487   0.688645
   45  H  6  S    0.238743   0.190600   0.122880   0.205028   0.391327
   46  H  6  S    0.410634   0.121374   0.078250   0.130562   0.688668

                     26         27         28         29         30

   26  N  2  X    1.000000
   27  N  2  Y    0.000000   1.000000
   28  N  2  Z    0.000000   0.000000   1.000000
   29  N  2  S    0.000000   0.000000   0.000000   1.000000
   30  N  2  X    0.653805   0.000000   0.000000   0.000000   1.000000
   31  N  2  Y    0.000000   0.653805   0.000000   0.000000   0.000000
   32  N  2  Z    0.000000   0.000000   0.653805   0.000000   0.000000
   33  N  2 XX    0.000000  -0.000000  -0.000000   0.404938  -0.000000
   34  N  2 YY    0.000000  -0.000000  -0.000000   0.404938   0.000000
   35  N  2 ZZ    0.000000  -0.000000   0.000000   0.404938   0.000000
   36  N  2 XY   -0.000000   0.000000   0.000000   0.000000   0.000000
   37  N  2 XZ   -0.000000   0.000000   0.000000   0.000000   0.000000
   38  N  2 YZ    0.000000  -0.000000  -0.000000   0.000000   0.000000
   39  H  3  S   -0.009509   0.003055   0.003410   0.050633  -0.124934
   40  H  3  S   -0.084523   0.027152   0.030308   0.172290  -0.332703
   41  H  4  S   -0.010319  -0.000295  -0.002048   0.050577  -0.135838
   42  H  4  S   -0.091843  -0.002622  -0.018231   0.172142  -0.361828
   43  H  5  S    0.220477  -0.274351  -0.421867   0.312562   0.114995
   44  H  5  S    0.217678  -0.270869  -0.416512   0.715580   0.205859
   45  H  6  S    0.342531   0.220831   0.368462   0.312569   0.178648
   46  H  6  S    0.338175   0.218022   0.363775   0.715591   0.319808

                     31         32         33         34         35

   31  N  2  Y    1.000000
   32  N  2  Z    0.000000   1.000000
   33  N  2 XX    0.000000   0.000000   1.000000
   34  N  2 YY    0.000000   0.000000   0.333333   1.000000
   35  N  2 ZZ    0.000000   0.000000   0.333333   0.333333   1.000000
   36  N  2 XY    0.000000   0.000000   0.000000   0.000000   0.000000
   37  N  2 XZ    0.000000   0.000000   0.000000   0.000000   0.000000
   38  N  2 YZ    0.000000   0.000000   0.000000   0.000000   0.000000
   39  H  3  S    0.040133   0.044798   0.000035   0.000005   0.000006
   40  H  3  S    0.106877   0.119300   0.014309   0.006531   0.006751
   41  H  4  S   -0.003878  -0.026965   0.000040   0.000002   0.000004
   42  H  4  S   -0.010329  -0.071825   0.015872   0.005630   0.006025
   43  H  5  S   -0.143094  -0.220034   0.189711   0.221213   0.342576
   44  H  5  S   -0.256162  -0.393897   0.379399   0.386272   0.412748
   45  H  6  S    0.115175   0.192172   0.270935   0.189914   0.292721
   46  H  6  S    0.206181   0.344018   0.397130   0.379456   0.401882

                     36         37         38         39         40

   36  N  2 XY    1.000000
   37  N  2 XZ    0.000000   1.000000
   38  N  2 YZ    0.000000   0.000000   1.000000
   39  H  3  S   -0.000018  -0.000020   0.000006   1.000000
   40  H  3  S   -0.004826  -0.005387   0.001731   0.658292   1.000000
   41  H  4  S    0.000002   0.000013   0.000000   0.010139   0.117393
   42  H  4  S    0.000507   0.003524   0.000101   0.117393   0.346480
   43  H  5  S   -0.123803  -0.190371   0.236889   0.000000   0.000410
   44  H  5  S   -0.027009  -0.041532   0.051680   0.000410   0.010396
   45  H  6  S    0.154823   0.258325   0.166543   0.000000   0.002024
   46  H  6  S    0.033773   0.056351   0.036330   0.002024   0.028066

                     41         42         43         44         45

   41  H  4  S    1.000000
   42  H  4  S    0.658292   1.000000
   43  H  5  S    0.000000   0.002010   1.000000
   44  H  5  S    0.002010   0.027949   0.658292   1.000000
   45  H  6  S    0.000000   0.000410   0.017419   0.145820   1.000000
   46  H  6  S    0.000410   0.010400   0.145820   0.396004   0.658292

                     46

   46  H  6  S    1.000000
 BARE NUCLEUS HAMILTONIAN INTEGRALS (H=T+V)

                      1          2          3          4          5

    1  C  1  S  -20.780409
    2  C  1  S   -4.281520  -7.622448
    3  C  1  X   -0.016045  -0.118498  -6.942993
    4  C  1  Y    0.001044   0.007992   0.010542  -6.845425
    5  C  1  Z    0.001802   0.013145  -0.006739  -0.062346  -6.905195
    6  C  1  S   -3.685358  -6.123110  -0.129686   0.009810   0.013754
    7  C  1  X   -0.002696  -0.095519  -3.659867   0.011639  -0.004581
    8  C  1  Y    0.000175   0.007388   0.011639  -3.555951  -0.055099
    9  C  1  Z    0.000303   0.010034  -0.004581  -0.055099  -3.608400
   10  C  1  S   -1.397510  -2.965963  -0.078488   0.006432   0.008030
   11  C  1  X   -0.000543  -0.030881  -1.061998   0.004167  -0.001026
   12  C  1  Y    0.000035   0.002586   0.004167  -1.025614  -0.016779
   13  C  1  Z    0.000061   0.003126  -0.001026  -0.016779  -1.041485
   14  C  1 XX   -1.574410  -5.095905  -0.201572   0.013094   0.019660
   15  C  1 YY   -1.571879  -5.014728  -0.051557   0.009237  -0.002642
   16  C  1 ZZ   -1.573512  -5.065660  -0.026743  -0.003375   0.013980
   17  C  1 XY    0.000468   0.015116   0.022679  -0.089299   0.039057
   18  C  1 XZ   -0.000336  -0.010194   0.034053   0.039057  -0.046321
   19  C  1 YZ   -0.002945  -0.091948   0.039057  -0.004575  -0.005846
   20  N  2  S   -0.000000  -0.000415  -0.001597   0.000207   0.000118
   21  N  2  S   -0.000028  -0.019736  -0.047379   0.006143   0.003497
   22  N  2  X    0.000111   0.039212   0.087027  -0.012268  -0.006984
   23  N  2  Y   -0.000014  -0.005089  -0.012280  -0.005991   0.000898
   24  N  2  Z   -0.000008  -0.002891  -0.006977   0.000897  -0.007076
   25  N  2  S   -0.071147  -0.320706  -0.402977   0.052127   0.029813
   26  N  2  X    0.277905   0.922421   0.982805  -0.150860  -0.086473
   27  N  2  Y   -0.036050  -0.119766  -0.151449  -0.163970   0.010499
   28  N  2  Z   -0.020500  -0.067982  -0.086130   0.010412  -0.177887
   29  N  2  S   -0.512789  -1.191751  -0.594211   0.075951   0.044501
   30  N  2  X    1.138700   2.380054   0.690200  -0.149520  -0.088819
   31  N  2  Y   -0.147715  -0.309221  -0.152054  -0.459849   0.006341
   32  N  2  Z   -0.083998  -0.175290  -0.087324   0.005960  -0.477780
   33  N  2 XX   -0.000395  -0.092018  -0.190282   0.028724   0.016356
   34  N  2 YY   -0.000011  -0.012282  -0.029743  -0.000198   0.002191
   35  N  2 ZZ   -0.000006  -0.011366  -0.027545   0.003569  -0.000273
   36  N  2 XY    0.000088   0.018230   0.040338   0.021370  -0.003211
   37  N  2 XZ    0.000050   0.010354   0.022910  -0.003202   0.025242
   38  N  2 YZ   -0.000006  -0.001362  -0.003283  -0.001573  -0.003274
   39  H  3  S   -0.550567  -1.802115   0.896455  -1.186100  -1.655771
   40  H  3  S   -1.756337  -3.384244   0.622638  -0.891284  -1.244971
   41  H  4  S   -0.550405  -1.801741   1.390092   0.780571   1.551972
   42  H  4  S   -1.756193  -3.383943   0.995620   0.594107   1.177803
   43  H  5  S   -0.000000  -0.000582  -0.001541   0.000441   0.000512
   44  H  5  S   -0.019711  -0.100842  -0.121373   0.034855   0.040594
   45  H  6  S   -0.000000  -0.000585  -0.001668  -0.000046  -0.000266
   46  H  6  S   -0.019761  -0.101044  -0.131146  -0.003744  -0.021052

                      6          7          8          9         10

    6  C  1  S   -6.440236
    7  C  1  X   -0.310041  -5.091858
    8  C  1  Y    0.031796   0.046861  -4.708399
    9  C  1  Z    0.027908   0.007816  -0.095791  -4.795297
   10  C  1  S   -4.142830  -0.408973   0.046376   0.034164  -4.328227
   11  C  1  X   -0.208380  -2.808044   0.039575   0.014488  -0.596394
   12  C  1  Y    0.023629   0.039575  -2.494472  -0.043191   0.072798
   13  C  1  Z    0.017407   0.014488  -0.043191  -2.530682   0.046729
   14  C  1 XX   -4.395524  -0.187033   0.013867   0.019189  -2.240193
   15  C  1 YY   -4.300871  -0.044414   0.008770  -0.003629  -2.184934
   16  C  1 ZZ   -4.355867  -0.019537  -0.003524   0.010984  -2.215214
   17  C  1 XY    0.017904   0.024018  -0.076927   0.038904   0.010568
   18  C  1 XZ   -0.010125   0.033236   0.038904  -0.033840  -0.005178
   19  C  1 YZ   -0.099542   0.038904  -0.006286  -0.006104  -0.054922
   20  N  2  S   -0.137090  -0.488018   0.063298   0.036005  -0.595808
   21  N  2  S   -0.391995  -1.166215   0.151165   0.086098  -1.245732
   22  N  2  X    0.363961   0.894387  -0.140912  -0.080373   0.357520
   23  N  2  Y   -0.047376  -0.141522  -0.173477   0.009423  -0.047254
   24  N  2  Z   -0.026753  -0.080013   0.009331  -0.186900  -0.025848
   25  N  2  S   -0.981358  -1.998206   0.258680   0.147712  -2.024146
   26  N  2  X    1.676005   2.339862  -0.403216  -0.231014   1.317937
   27  N  2  Y   -0.217962  -0.405295  -0.720764   0.025850  -0.173019
   28  N  2  Z   -0.123315  -0.229801   0.025539  -0.760238  -0.095997
   29  N  2  S   -1.981712  -1.954024   0.251339   0.145402  -2.872037
   30  N  2  X    3.195522   1.428824  -0.355770  -0.209234   2.596333
   31  N  2  Y   -0.415792  -0.360541  -1.291878   0.013779  -0.339412
   32  N  2  Z   -0.234982  -0.206427   0.013063  -1.335798  -0.189974
   33  N  2 XX   -0.592987  -1.426204   0.224772   0.128033  -1.135852
   34  N  2 YY   -0.293340  -0.870717   0.072825   0.064211  -1.021247
   35  N  2 ZZ   -0.291335  -0.865961   0.112229   0.041348  -1.031871
   36  N  2 XY    0.068421   0.162289   0.240745  -0.014303   0.024269
   37  N  2 XZ    0.038314   0.090430  -0.014017   0.258413   0.010719
   38  N  2 YZ   -0.007751  -0.024204  -0.016521  -0.032930  -0.023451
   39  H  3  S   -2.192112   1.077107  -1.428088  -1.994175  -1.439050
   40  H  3  S   -4.040745   0.945296  -1.416056  -1.985422  -3.058630
   41  H  4  S   -2.191771   1.671791   0.940716   1.869488  -1.438882
   42  H  4  S   -4.040350   1.541061   0.956333   1.884085  -3.058314
   43  H  5  S   -0.059386  -0.200177   0.055012   0.062729  -0.509645
   44  H  5  S   -0.411218  -0.876075   0.230624   0.258151  -1.305223
   45  H  6  S   -0.059501  -0.215023  -0.003543  -0.030777  -0.509989
   46  H  6  S   -0.411734  -0.935360  -0.005498  -0.118866  -1.305924

                     11         12         13         14         15

   11  C  1  X   -3.713051
   12  C  1  Y    0.076527  -3.117746
   13  C  1  Z    0.038273  -0.035921  -3.140819
   14  C  1 XX   -0.059189   0.004471   0.005892  -5.744782
   15  C  1 YY   -0.013826   0.002927  -0.001073  -2.596948  -5.561720
   16  C  1 ZZ   -0.006347  -0.000958   0.003338  -2.622919  -2.590715
   17  C  1 XY    0.007744  -0.023948   0.011639   0.012829   0.020218
   18  C  1 XZ    0.010205   0.011639  -0.010994  -0.018518   0.002139
   19  C  1 YZ    0.011639  -0.001858  -0.001659  -0.043578  -0.088547
   20  N  2  S   -1.103649   0.143147   0.081425  -0.000229  -0.000005
   21  N  2  S   -2.192643   0.284124   0.161931  -0.038750  -0.003422
   22  N  2  X    0.259581  -0.080952  -0.046629   0.081362   0.008266
   23  N  2  Y   -0.082595  -0.351052   0.001983  -0.012051   0.000419
   24  N  2  Z   -0.045644   0.001734  -0.362337  -0.006850  -0.000609
   25  N  2  S   -3.135944   0.405821   0.231913  -0.440146  -0.172897
   26  N  2  X    0.694549  -0.238134  -0.137819   1.116695   0.544350
   27  N  2  Y   -0.241997  -1.104147   0.004507  -0.176638  -0.039107
   28  N  2  Z   -0.135518   0.003924  -1.138333  -0.100407  -0.040096
   29  N  2  S   -3.154350   0.406962   0.234010  -1.020944  -0.840214
   30  N  2  X    0.327106  -0.303371  -0.177871   1.834522   1.731986
   31  N  2  Y   -0.308303  -1.978738   0.005357  -0.270690  -0.192829
   32  N  2  Z   -0.174942   0.004613  -2.022591  -0.153212  -0.128143
   33  N  2 XX   -1.806989   0.256646   0.145616  -0.198481  -0.022409
   34  N  2 YY   -1.794613   0.209255   0.132884  -0.022561  -0.002884
   35  N  2 ZZ   -1.816627   0.235731   0.121924  -0.019880  -0.001689
   36  N  2 XY    0.018714   0.147274  -0.006346   0.046546  -0.001862
   37  N  2 XZ    0.004273  -0.005600   0.147883   0.026455   0.002657
   38  N  2 YZ   -0.046767  -0.004778  -0.015976  -0.003937   0.000134
   39  H  3  S    0.436592  -0.578638  -0.808054  -1.114719  -1.330684
   40  H  3  S    0.592617  -0.895727  -1.257978  -2.403955  -2.439894
   41  H  4  S    0.677581   0.381198   0.757502  -1.525270  -1.040233
   42  H  4  S    0.970132   0.607495   1.193857  -2.511684  -2.360747
   43  H  5  S   -1.029122   0.288879   0.332501  -0.000757  -0.000110
   44  H  5  S   -2.210551   0.579142   0.646796  -0.127559  -0.058829
   45  H  6  S   -1.107056  -0.024341  -0.167497  -0.000879  -0.000051
   46  H  6  S   -2.357204  -0.011043  -0.295329  -0.139802  -0.052979

                     16         17         18         19         20

   16  C  1 ZZ   -5.670723
   17  C  1 XY    0.007044  -4.590844
   18  C  1 XZ   -0.010617  -0.075479  -4.668757
   19  C  1 YZ   -0.111549   0.003704   0.012201  -4.572144
   20  N  2  S   -0.000003   0.000051   0.000029  -0.000004 -27.122586
   21  N  2  S   -0.003015   0.008070   0.004593  -0.000598  -5.716841
   22  N  2  X    0.007292  -0.018033  -0.010264   0.001433   0.006931
   23  N  2  Y   -0.000945  -0.007456   0.001420   0.000550  -0.001686
   24  N  2  Z    0.000312   0.001418  -0.009159   0.001188  -0.000035
   25  N  2  S   -0.170459   0.060849   0.034584  -0.005592  -4.514896
   26  N  2  X    0.537384  -0.158476  -0.089931   0.017894   0.001016
   27  N  2  Y   -0.069725  -0.187250   0.013354   0.013337  -0.000247
   28  N  2  Z   -0.021503   0.013368  -0.203906   0.026078  -0.000005
   29  N  2  S   -0.846323   0.040311   0.020498  -0.017220  -1.903702
   30  N  2  X    1.747689  -0.050586  -0.022001   0.040049   0.000244
   31  N  2  Y   -0.227140  -0.207860   0.007227   0.010534  -0.000059
   32  N  2  Z   -0.109898   0.007937  -0.212888   0.024416  -0.000001
   33  N  2 XX   -0.019734   0.046543   0.026496  -0.003939  -1.337176
   34  N  2 YY   -0.001688  -0.001835   0.002678   0.000133  -1.336060
   35  N  2 ZZ   -0.003103   0.004153  -0.001360   0.000173  -1.337069
   36  N  2 XY    0.004122   0.030478  -0.005847  -0.002410   0.000064
   37  N  2 XZ   -0.001383  -0.005838   0.037490  -0.005208  -0.000195
   38  N  2 YZ    0.000176  -0.002408  -0.005211  -0.001997  -0.001851
   39  H  3  S   -1.819527   0.670418   0.934334  -1.243692  -0.000000
   40  H  3  S   -2.598009   0.178499   0.235639  -0.385178  -0.015227
   41  H  4  S   -1.698590  -0.683280  -1.360481  -0.769554  -0.000000
   42  H  4  S   -2.568750  -0.176590  -0.367670  -0.258225  -0.015183
   43  H  5  S   -0.000132   0.000356   0.000416  -0.000122  -0.789707
   44  H  5  S   -0.061268   0.036785   0.042570  -0.012717  -2.010846
   45  H  6  S   -0.000073  -0.000046  -0.000238  -0.000008  -0.789871
   46  H  6  S   -0.055364  -0.003936  -0.023687  -0.001208  -2.010959

                     21         22         23         24         25

   21  N  2  S   -9.290517
   22  N  2  X    0.049294  -8.305826
   23  N  2  Y   -0.011858   0.002180  -8.244132
   24  N  2  Z   -0.000330  -0.005993  -0.057877  -8.298789
   25  N  2  S   -7.108472   0.054266  -0.012199  -0.000879  -7.435701
   26  N  2  X    0.038261  -3.946696   0.002922  -0.004802   0.189066
   27  N  2  Y   -0.008496   0.002922  -3.884321  -0.051712  -0.031517
   28  N  2  Z   -0.000683  -0.004802  -0.051712  -3.933003  -0.009709
   29  N  2  S   -3.684641   0.035073  -0.007507  -0.000797  -5.065821
   30  N  2  X    0.014156  -1.291415   0.001290  -0.001537   0.157725
   31  N  2  Y   -0.002988   0.001290  -1.267541  -0.018165  -0.023775
   32  N  2  Z   -0.000347  -0.001537  -0.018165  -1.284600  -0.009626
   33  N  2 XX   -5.355814   0.103035  -0.014639  -0.012723  -5.090578
   34  N  2 YY   -5.300318   0.021222  -0.015699   0.004642  -5.004974
   35  N  2 ZZ   -5.349247  -0.001998   0.001589   0.006866  -5.072116
   36  N  2 XY    0.003441  -0.025356   0.036758  -0.040254   0.006884
   37  N  2 XZ   -0.009259  -0.022038  -0.040254  -0.003460  -0.011524
   38  N  2 YZ   -0.089752  -0.040254   0.008040   0.002752  -0.123516
   39  H  3  S   -0.000061   0.000161  -0.000051  -0.000056  -0.020968
   40  H  3  S   -0.060811   0.064238  -0.020291  -0.022483  -0.262354
   41  H  4  S   -0.000061   0.000174   0.000004   0.000033  -0.020911
   42  H  4  S   -0.060661   0.069581   0.001671   0.013305  -0.261921
   43  H  5  S   -2.114730  -0.936406   1.180049   1.817453  -2.709481
   44  H  5  S   -3.703095  -0.564625   0.738224   1.144249  -4.618955
   45  H  6  S   -2.115069  -1.462588  -0.954171  -1.588850  -2.709813
   46  H  6  S   -3.703318  -0.895997  -0.606228  -1.001550  -4.619276

                     26         27         28         29         30

   26  N  2  X   -5.564945
   27  N  2  Y    0.025256  -5.292075
   28  N  2  Z    0.000828  -0.107990  -5.390717
   29  N  2  S    0.287309  -0.043309  -0.017534  -5.055767
   30  N  2  X   -3.367691   0.028141   0.008970   0.486328  -4.174635
   31  N  2  Y    0.028141  -3.114432  -0.055763  -0.067606   0.068137
   32  N  2  Z    0.008970  -0.055763  -3.162989  -0.033144   0.032499
   33  N  2 XX    0.147855  -0.019961  -0.018180  -3.010744   0.063523
   34  N  2 YY    0.028759  -0.018550   0.005637  -2.951142   0.012587
   35  N  2 ZZ   -0.002276   0.002904   0.007554  -2.994208   0.000885
   36  N  2 XY   -0.034574   0.049812  -0.053451   0.005489  -0.013954
   37  N  2 XZ   -0.031489  -0.053451  -0.003942  -0.006805  -0.012444
   38  N  2 YZ   -0.053451   0.009764   0.005030  -0.079405  -0.020054
   39  H  3  S    0.075822  -0.022630  -0.024613  -0.312953   0.751647
   40  H  3  S    0.543699  -0.157841  -0.169709  -0.955743   1.808794
   41  H  4  S    0.081512   0.000896   0.013727  -0.312615   0.811211
   42  H  4  S    0.583076   0.002558   0.091753  -0.954964   1.935342
   43  H  5  S   -1.260156   1.595378   2.457573  -1.968419  -0.622921
   44  H  5  S   -0.976736   1.356762   2.109893  -3.858485  -0.735134
   45  H  6  S   -1.971714  -1.291127  -2.149407  -1.968608  -0.974861
   46  H  6  S   -1.589269  -1.128640  -1.856926  -3.858788  -1.209000

                     31         32         33         34         35

   31  N  2  Y   -3.632725
   32  N  2  Z   -0.046469  -3.666153
   33  N  2 XX   -0.008056  -0.007184  -6.320952
   34  N  2 YY   -0.007556   0.001969  -2.794573  -6.157554
   35  N  2 ZZ    0.000899   0.002400  -2.824999  -2.796301  -6.291252
   36  N  2 XY    0.021801  -0.020054   0.000007   0.009391   0.003506
   37  N  2 XZ   -0.020054   0.001533  -0.022665  -0.000528  -0.007120
   38  N  2 YZ    0.003410   0.001557  -0.054871  -0.106680  -0.139726
   39  H  3  S   -0.228379  -0.249985  -0.000453  -0.000071  -0.000081
   40  H  3  S   -0.512283  -0.545357  -0.109123  -0.051256  -0.052810
   41  H  4  S    0.012280   0.142416  -0.000525  -0.000029  -0.000047
   42  H  4  S   -0.002396   0.286053  -0.119842  -0.045046  -0.047816
   43  H  5  S    0.789134   1.215573  -1.454812  -1.652439  -2.402374
   44  H  5  S    1.047747   1.630368  -2.817206  -2.836099  -3.044258
   45  H  6  S   -0.638644  -1.063219  -1.946506  -1.464976  -2.098912
   46  H  6  S   -0.875101  -1.438603  -2.929404  -2.795351  -2.973368

                     36         37         38         39         40

   36  N  2 XY   -5.183719
   37  N  2 XZ   -0.095040  -5.274998
   38  N  2 YZ   -0.000915   0.006072  -5.188904
   39  H  3  S    0.000231   0.000256  -0.000081  -4.807809
   40  H  3  S    0.034180   0.037533  -0.012162  -3.467480  -4.706815
   41  H  4  S   -0.000020  -0.000163  -0.000004  -0.095251  -0.760801
   42  H  4  S   -0.002461  -0.023694  -0.000959  -0.760853  -2.003581
   43  H  5  S    0.745280   1.146552  -1.456931  -0.000000  -0.003963
   44  H  5  S    0.169218   0.252679  -0.395626  -0.003634  -0.071835
   45  H  6  S   -0.941528  -1.568976  -1.032825  -0.000006  -0.015498
   46  H  6  S   -0.215683  -0.366070  -0.300527  -0.014523  -0.162560

                     41         42         43         44         45

   41  H  4  S   -4.807251
   42  H  4  S   -3.467119  -4.706321
   43  H  5  S   -0.000006  -0.015401  -5.404944
   44  H  5  S   -0.014432  -0.161924  -3.848229  -5.152689
   45  H  6  S   -0.000000  -0.003964  -0.177365  -1.046957  -5.405447
   46  H  6  S   -0.003637  -0.071852  -1.046900  -2.489182  -3.848553

                     46

   46  H  6  S   -5.153119
 KINETIC ENERGY INTEGRALS

                      1          2          3          4          5

    1  C  1  S   16.207568
    2  C  1  S   -1.247569   0.932246
    3  C  1  X    0.000000  -0.000000   2.178332
    4  C  1  Y    0.000000   0.000000   0.000000   2.178332
    5  C  1  Z    0.000000   0.000000   0.000000   0.000000   2.178332
    6  C  1  S    0.089950   0.306718   0.000000   0.000000   0.000000
    7  C  1  X    0.000000   0.000000   0.376673   0.000000   0.000000
    8  C  1  Y    0.000000  -0.000000   0.000000   0.376673  -0.000000
    9  C  1  Z   -0.000000  -0.000000   0.000000  -0.000000   0.376673
   10  C  1  S    0.009080   0.048660   0.000000   0.000000   0.000000
   11  C  1  X    0.000000   0.000000   0.033561   0.000000   0.000000
   12  C  1  Y   -0.000000  -0.000000   0.000000   0.033561   0.000000
   13  C  1  Z   -0.000000   0.000000   0.000000   0.000000   0.033561
   14  C  1 XX   -0.524817   0.520042   0.000000  -0.000000   0.000000
   15  C  1 YY   -0.524817   0.520042   0.000000   0.000000   0.000000
   16  C  1 ZZ   -0.524817   0.520042   0.000000  -0.000000  -0.000000
   17  C  1 XY    0.000000  -0.000000  -0.000000   0.000000   0.000000
   18  C  1 XZ   -0.000000   0.000000   0.000000   0.000000   0.000000
   19  C  1 YZ   -0.000000  -0.000000   0.000000   0.000000  -0.000000
   20  N  2  S   -0.000000  -0.000125  -0.000432   0.000056   0.000032
   21  N  2  S   -0.000016  -0.006090  -0.012328   0.001599   0.000909
   22  N  2  X    0.000060   0.010679   0.019013  -0.002746  -0.001562
   23  N  2  Y   -0.000008  -0.001385  -0.002746  -0.001800   0.000203
   24  N  2  Z   -0.000004  -0.000788  -0.001562   0.000203  -0.002040
   25  N  2  S   -0.003724  -0.019632  -0.011731   0.001522   0.000865
   26  N  2  X    0.009020   0.019799  -0.022531   0.002181   0.001241
   27  N  2  Y   -0.001170  -0.002568   0.002181  -0.005997  -0.000161
   28  N  2  Z   -0.000665  -0.001461   0.001241  -0.000161  -0.005806
   29  N  2  S    0.000708   0.006281   0.013060  -0.001694  -0.000963
   30  N  2  X   -0.008736  -0.048915  -0.034952   0.006037   0.003434
   31  N  2  Y    0.001133   0.006345   0.006037   0.010805  -0.000445
   32  N  2  Z    0.000644   0.003609   0.003434  -0.000445   0.011335
   33  N  2 XX   -0.000209  -0.022206  -0.034353   0.005428   0.003087
   34  N  2 YY   -0.000006  -0.004253  -0.008939   0.000187   0.000659
   35  N  2 ZZ   -0.000004  -0.004045  -0.008558   0.001110   0.000078
   36  N  2 XY    0.000046   0.004102   0.006678   0.005515  -0.000555
   37  N  2 XZ    0.000026   0.002333   0.003798  -0.000555   0.006174
   38  N  2 YZ   -0.000003  -0.000303  -0.000555  -0.000407  -0.000801
   39  H  3  S   -0.034126   0.023945  -0.081284   0.105473   0.147158
   40  H  3  S    0.021585   0.105786  -0.052889   0.068628   0.095752
   41  H  4  S   -0.034125   0.023918  -0.125092  -0.069123  -0.137614
   42  H  4  S    0.021581   0.105772  -0.081415  -0.044988  -0.089564
   43  H  5  S   -0.000000  -0.000241  -0.000582   0.000174   0.000205
   44  H  5  S   -0.001125  -0.008508  -0.007287   0.002174   0.002565
   45  H  6  S   -0.000000  -0.000242  -0.000633  -0.000024  -0.000111
   46  H  6  S   -0.001127  -0.008519  -0.007903  -0.000302  -0.001387

                      6          7          8          9         10

    6  C  1  S    0.253072
    7  C  1  X    0.000000   0.421786
    8  C  1  Y    0.000000   0.000000   0.421786
    9  C  1  Z    0.000000   0.000000   0.000000   0.421786
   10  C  1  S    0.075909   0.000000  -0.000000   0.000000   0.065700
   11  C  1  X   -0.000000   0.102352  -0.000000   0.000000   0.000000
   12  C  1  Y   -0.000000  -0.000000   0.102352   0.000000   0.000000
   13  C  1  Z    0.000000   0.000000   0.000000   0.102352   0.000000
   14  C  1 XX    0.226288   0.000000   0.000000   0.000000   0.038835
   15  C  1 YY    0.226288   0.000000   0.000000   0.000000   0.038835
   16  C  1 ZZ    0.226288   0.000000   0.000000   0.000000   0.038835
   17  C  1 XY    0.000000   0.000000   0.000000   0.000000   0.000000
   18  C  1 XZ    0.000000   0.000000   0.000000   0.000000   0.000000
   19  C  1 YZ    0.000000   0.000000   0.000000   0.000000   0.000000
   20  N  2  S   -0.003134  -0.005099   0.000661   0.000376   0.001213
   21  N  2  S   -0.015337  -0.009858   0.001279   0.000727   0.007563
   22  N  2  X    0.004498  -0.027513   0.003250   0.001849  -0.006152
   23  N  2  Y   -0.000583   0.003250  -0.002878  -0.000240   0.000798
   24  N  2  Z   -0.000332   0.001849  -0.000240  -0.002592   0.000454
   25  N  2  S   -0.011283   0.033238  -0.004311  -0.002452   0.017310
   26  N  2  X   -0.029649  -0.146624   0.021119   0.012012  -0.028129
   27  N  2  Y    0.003846   0.021119   0.013451  -0.001558   0.003649
   28  N  2  Z    0.002187   0.012012  -0.001558   0.015304   0.002075
   29  N  2  S    0.017020   0.047799  -0.006200  -0.003526   0.029011
   30  N  2  X   -0.077668  -0.085878   0.016641   0.009465  -0.053954
   31  N  2  Y    0.010074   0.016641   0.040254  -0.001228   0.006998
   32  N  2  Z    0.005730   0.009465  -0.001228   0.041714   0.003980
   33  N  2 XX   -0.007871   0.035218  -0.005713  -0.003250   0.009725
   34  N  2 YY   -0.015820  -0.015937   0.003212   0.001176   0.006997
   35  N  2 ZZ   -0.015912  -0.016632   0.002157   0.001878   0.006966
   36  N  2 XY   -0.001816  -0.012715  -0.005869   0.001011  -0.000623
   37  N  2 XZ   -0.001033  -0.007232   0.001011  -0.007071  -0.000355
   38  N  2 YZ    0.000134   0.001011   0.000433   0.000917   0.000046
   39  H  3  S    0.086250  -0.107266   0.139186   0.194195   0.027626
   40  H  3  S    0.127225  -0.084418   0.109540   0.152832   0.058676
   41  H  4  S    0.086237  -0.165117  -0.091240  -0.181645   0.027625
   42  H  4  S    0.127215  -0.129954  -0.071809  -0.142962   0.058674
   43  H  5  S   -0.005866  -0.013621   0.004063   0.004795   0.000776
   44  H  5  S   -0.013148  -0.005713   0.001704   0.002011   0.005605
   45  H  6  S   -0.005875  -0.014778  -0.000564  -0.002593   0.000781
   46  H  6  S   -0.013151  -0.006168  -0.000236  -0.001082   0.005617

                     11         12         13         14         15

   11  C  1  X    0.109500
   12  C  1  Y    0.000000   0.109500
   13  C  1  Z    0.000000   0.000000   0.109500
   14  C  1 XX    0.000000   0.000000   0.000000   1.733333
   15  C  1 YY    0.000000   0.000000   0.000000  -0.133333   1.733333
   16  C  1 ZZ    0.000000   0.000000   0.000000  -0.133333  -0.133333
   17  C  1 XY    0.000000   0.000000   0.000000   0.000000   0.000000
   18  C  1 XZ    0.000000   0.000000   0.000000   0.000000   0.000000
   19  C  1 YZ    0.000000   0.000000   0.000000   0.000000   0.000000
   20  N  2  S    0.005896  -0.000765  -0.000435  -0.000110  -0.000003
   21  N  2  S    0.033457  -0.004340  -0.002468  -0.013412  -0.001544
   22  N  2  X   -0.010902   0.002269   0.001291   0.023987   0.003432
   23  N  2  Y    0.002269   0.006299  -0.000167  -0.003641   0.000084
   24  N  2  Z    0.001291  -0.000167   0.006498  -0.002071  -0.000253
   25  N  2  S    0.061889  -0.008028  -0.004566  -0.014943  -0.016163
   26  N  2  X   -0.038044   0.008845   0.005031  -0.017222   0.027543
   27  N  2  Y    0.008845   0.028999  -0.000653   0.002391  -0.003729
   28  N  2  Z    0.005031  -0.000653   0.029775   0.001360  -0.002032
   29  N  2  S    0.065168  -0.008453  -0.004808   0.009352   0.003240
   30  N  2  X   -0.032207   0.011678   0.006642  -0.044193  -0.036915
   31  N  2  Y    0.011678   0.056310  -0.000862   0.007163   0.003357
   32  N  2  Z    0.006642  -0.000862   0.057334   0.004074   0.002723
   33  N  2 XX    0.033554  -0.005124  -0.002914  -0.049641  -0.008723
   34  N  2 YY    0.032858  -0.003491  -0.002424  -0.008723  -0.001354
   35  N  2 ZZ    0.032781  -0.004252  -0.001980  -0.008047  -0.000841
   36  N  2 XY   -0.000850  -0.004953   0.000112   0.011294  -0.000260
   37  N  2 XZ   -0.000483   0.000112  -0.005087   0.006424   0.001013
   38  N  2 YZ    0.000112   0.000365   0.000660  -0.000984   0.000019
   39  H  3  S   -0.016766   0.021756   0.030354  -0.016750   0.028850
   40  H  3  S   -0.029470   0.038240   0.053354   0.072833   0.080220
   41  H  4  S   -0.025811  -0.014262  -0.028394   0.074574  -0.035194
   42  H  4  S   -0.045369  -0.025069  -0.049910   0.087622   0.069837
   43  H  5  S    0.014833  -0.004425  -0.005221  -0.000357  -0.000057
   44  H  5  S    0.037604  -0.011217  -0.013237  -0.008725  -0.006207
   45  H  6  S    0.016095   0.000615   0.002824  -0.000417  -0.000029
   46  H  6  S    0.040792   0.001558   0.007157  -0.009216  -0.005974

                     16         17         18         19         20

   16  C  1 ZZ    1.733333
   17  C  1 XY    0.000000   2.800000
   18  C  1 XZ    0.000000   0.000000   2.800000
   19  C  1 YZ    0.000000   0.000000   0.000000   2.800000
   20  N  2  S   -0.000002   0.000024   0.000014  -0.000002  22.380850
   21  N  2  S   -0.001406   0.002712   0.001542  -0.000200  -1.780337
   22  N  2  X    0.003146  -0.005171  -0.002941   0.000415  -0.000000
   23  N  2  Y   -0.000408  -0.002805   0.000415   0.000207  -0.000000
   24  N  2  Z    0.000069   0.000415  -0.003299   0.000428  -0.000000
   25  N  2  S   -0.016177  -0.000279  -0.000159   0.000021   0.105796
   26  N  2  X    0.028075   0.010370   0.005898  -0.000775  -0.000000
   27  N  2  Y   -0.003642  -0.000316  -0.000775   0.000023   0.000000
   28  N  2  Z   -0.002160  -0.000775   0.000606  -0.000079  -0.000000
   29  N  2  S    0.003169  -0.001397  -0.000794   0.000103   0.013731
   30  N  2  X   -0.036703   0.002945   0.001675  -0.000309  -0.000000
   31  N  2  Y    0.004761   0.009011  -0.000309  -0.000665   0.000000
   32  N  2  Z    0.001894  -0.000309   0.009379  -0.001216  -0.000000
   33  N  2 XX   -0.008047   0.011294   0.006424  -0.000984  -0.502744
   34  N  2 YY   -0.000841  -0.000260   0.001013   0.000019  -0.502744
   35  N  2 ZZ   -0.001387   0.001647  -0.000224   0.000029  -0.502744
   36  N  2 XY    0.001647   0.010120  -0.001371  -0.000810   0.000000
   37  N  2 XZ   -0.000224  -0.001371   0.011751  -0.001656   0.000000
   38  N  2 YZ    0.000029  -0.000810  -0.001656  -0.000804  -0.000000
   39  H  3  S    0.135153  -0.149895  -0.209136   0.271372  -0.000000
   40  H  3  S    0.097439  -0.024280  -0.033877   0.043958  -0.000724
   41  H  4  S    0.107791   0.151235   0.301087   0.166373  -0.000000
   42  H  4  S    0.093004   0.024504   0.048783   0.026956  -0.000722
   43  H  5  S   -0.000069   0.000170   0.000201  -0.000060  -0.029103
   44  H  5  S   -0.006303   0.001428   0.001686  -0.000503   0.021248
   45  H  6  S   -0.000040  -0.000026  -0.000118  -0.000005  -0.029103
   46  H  6  S   -0.006070  -0.000215  -0.000987  -0.000038   0.021250

                     21         22         23         24         25

   21  N  2  S    1.324774
   22  N  2  X   -0.000000   3.132326
   23  N  2  Y    0.000000   0.000000   3.132326
   24  N  2  Z    0.000000   0.000000   0.000000   3.132326
   25  N  2  S    0.379313  -0.000000   0.000000  -0.000000   0.318047
   26  N  2  X   -0.000000   0.441948   0.000000   0.000000  -0.000000
   27  N  2  Y    0.000000   0.000000   0.441948   0.000000   0.000000
   28  N  2  Z    0.000000   0.000000   0.000000   0.441948   0.000000
   29  N  2  S    0.072139  -0.000000   0.000000  -0.000000   0.114154
   30  N  2  X   -0.000000   0.050146  -0.000000   0.000000   0.000000
   31  N  2  Y   -0.000000  -0.000000   0.050146  -0.000000   0.000000
   32  N  2  Z    0.000000   0.000000  -0.000000   0.050146   0.000000
   33  N  2 XX    0.420094   0.000000   0.000000  -0.000000   0.277470
   34  N  2 YY    0.420094   0.000000   0.000000  -0.000000   0.277470
   35  N  2 ZZ    0.420094   0.000000   0.000000   0.000000   0.277470
   36  N  2 XY    0.000000   0.000000   0.000000   0.000000   0.000000
   37  N  2 XZ    0.000000  -0.000000   0.000000   0.000000   0.000000
   38  N  2 YZ    0.000000   0.000000  -0.000000   0.000000  -0.000000
   39  H  3  S   -0.000033   0.000082  -0.000026  -0.000030  -0.003396
   40  H  3  S   -0.005596   0.004700  -0.001510  -0.001685  -0.012472
   41  H  4  S   -0.000033   0.000089   0.000003   0.000018  -0.003388
   42  H  4  S   -0.005587   0.005109   0.000146   0.001014  -0.012463
   43  H  5  S    0.011905   0.079843  -0.099352  -0.152773   0.109473
   44  H  5  S    0.106511   0.041660  -0.051839  -0.079713   0.143947
   45  H  6  S    0.011928   0.124073   0.079990   0.133465   0.109487
   46  H  6  S    0.106521   0.064723   0.041727   0.069623   0.143956

                     26         27         28         29         30

   26  N  2  X    0.530079
   27  N  2  Y    0.000000   0.530079
   28  N  2  Z   -0.000000   0.000000   0.530079
   29  N  2  S    0.000000   0.000000   0.000000   0.095850
   30  N  2  X    0.160516   0.000000   0.000000  -0.000000   0.159750
   31  N  2  Y    0.000000   0.160516   0.000000   0.000000   0.000000
   32  N  2  Z    0.000000   0.000000   0.160516   0.000000   0.000000
   33  N  2 XX    0.000000  -0.000000  -0.000000   0.068057  -0.000000
   34  N  2 YY   -0.000000  -0.000000  -0.000000   0.068057   0.000000
   35  N  2 ZZ   -0.000000  -0.000000   0.000000   0.068057   0.000000
   36  N  2 XY   -0.000000  -0.000000  -0.000000   0.000000   0.000000
   37  N  2 XZ   -0.000000  -0.000000  -0.000000   0.000000   0.000000
   38  N  2 YZ   -0.000000  -0.000000  -0.000000   0.000000   0.000000
   39  H  3  S    0.009634  -0.003095  -0.003455  -0.003254  -0.006570
   40  H  3  S    0.010979  -0.003527  -0.003937  -0.001629  -0.027308
   41  H  4  S    0.010465   0.000299   0.002077  -0.003257  -0.007126
   42  H  4  S    0.011959   0.000341   0.002374  -0.001641  -0.029670
   43  H  5  S    0.134092  -0.166858  -0.256575   0.046485   0.030577
   44  H  5  S    0.085381  -0.106244  -0.163370   0.086500   0.043727
   45  H  6  S    0.208331   0.134311   0.224102   0.046487   0.047503
   46  H  6  S    0.132646   0.085517   0.142687   0.086502   0.067932

                     31         32         33         34         35

   31  N  2  Y    0.159750
   32  N  2  Z    0.000000   0.159750
   33  N  2 XX    0.000000   0.000000   1.733333
   34  N  2 YY    0.000000   0.000000  -0.133333   1.733333
   35  N  2 ZZ    0.000000   0.000000  -0.133333  -0.133333   1.733333
   36  N  2 XY    0.000000   0.000000  -0.000000   0.000000   0.000000
   37  N  2 XZ    0.000000   0.000000   0.000000   0.000000   0.000000
   38  N  2 YZ    0.000000   0.000000   0.000000   0.000000   0.000000
   39  H  3  S    0.002111   0.002356  -0.000224  -0.000038  -0.000043
   40  H  3  S    0.008772   0.009792  -0.007948  -0.005438  -0.005509
   41  H  4  S   -0.000203  -0.001415  -0.000261  -0.000017  -0.000026
   42  H  4  S   -0.000847  -0.005890  -0.008454  -0.005143  -0.005270
   43  H  5  S   -0.038049  -0.058507  -0.002225   0.043701   0.220635
   44  H  5  S   -0.054412  -0.083669   0.086064   0.091551   0.112687
   45  H  6  S    0.030625   0.051099   0.116182  -0.001947   0.147947
   46  H  6  S    0.043796   0.073075   0.100214   0.086104   0.104008

                     36         37         38         39         40

   36  N  2 XY    2.800000
   37  N  2 XZ    0.000000   2.800000
   38  N  2 YZ    0.000000   0.000000   2.800000
   39  H  3  S    0.000115   0.000129  -0.000041   1.395678
   40  H  3  S    0.001557   0.001738  -0.000558   0.259735   0.241917
   41  H  4  S   -0.000012  -0.000084  -0.000002  -0.018649  -0.006894
   42  H  4  S   -0.000164  -0.001140  -0.000033  -0.006894   0.024591
   43  H  5  S   -0.180492  -0.277540   0.345358  -0.000000  -0.000621
   44  H  5  S   -0.021562  -0.033155   0.041257  -0.000621  -0.005141
   45  H  6  S    0.225734   0.376642   0.242822  -0.000004  -0.002239
   46  H  6  S    0.026962   0.044987   0.029003  -0.002239  -0.009384

                     41         42         43         44         45

   41  H  4  S    1.395678
   42  H  4  S    0.259735   0.241917
   43  H  5  S   -0.000004  -0.002228   1.395678
   44  H  5  S   -0.002228  -0.009364   0.259735   0.241917
   45  H  6  S   -0.000000  -0.000621  -0.026469  -0.000307   1.395678
   46  H  6  S   -0.000621  -0.005143  -0.000307   0.036638   0.259735

                     46

   46  H  6  S    0.241917
 ...... END OF ONE-ELECTRON INTEGRALS ......
 CPU     0: STEP CPU TIME=     0.01 TOTAL CPU TIME=        0.0 (    0.0 MIN)
 TOTAL WALL CLOCK TIME=        0.0 SECONDS, CPU UTILIZATION IS  50.00%

          -------------
          GUESS OPTIONS
          -------------
          GUESS =HUCKEL            NORB  =       0          NORDER=       0
          MIX   =       F          PRTMO =       F          PUNMO =       F
          TOLZ  = 1.0E-08          TOLE  = 1.0E-05
          SYMDEN=       F          PURIFY=       F

 INITIAL GUESS ORBITALS GENERATED BY HUCKEL   ROUTINE.
 HUCKEL GUESS REQUIRES     20552 WORDS.

 SYMMETRIES FOR INITIAL GUESS ORBITALS FOLLOW.   BOTH SET(S).
     8 ORBITALS ARE OCCUPIED (    2 CORE ORBITALS).
     3=A        4=A        5=A        6=A        7=A        8=A        9=A   
    10=A       11=A       12=A       13=A       14=A       15=A       16=A   
    17=A       18=A   
 ...... END OF INITIAL ORBITAL SELECTION ......
 CPU     0: STEP CPU TIME=     0.00 TOTAL CPU TIME=        0.0 (    0.0 MIN)
 TOTAL WALL CLOCK TIME=        0.0 SECONDS, CPU UTILIZATION IS  50.00%

                    ----------------------
                    AO INTEGRAL TECHNOLOGY
                    ----------------------
     S,P,L SHELL ROTATED AXIS INTEGRALS, REPROGRAMMED BY
        KAZUYA ISHIMURA (IMS) AND JOSE SIERRA (SYNSTAR).
     S,P,D,L SHELL ROTATED AXIS INTEGRALS PROGRAMMED BY
        KAZUYA ISHIMURA (INSTITUTE FOR MOLECULAR SCIENCE).
     S,P,D,F,G SHELL TO TOTAL QUARTET ANGULAR MOMENTUM SUM 5,
        ERIC PROGRAM BY GRAHAM FLETCHER (ELORET AND NASA ADVANCED
        SUPERCOMPUTING DIVISION, AMES RESEARCH CENTER).
     S,P,D,F,G,L SHELL GENERAL RYS QUADRATURE PROGRAMMED BY
        MICHEL DUPUIS (PACIFIC NORTHWEST NATIONAL LABORATORY).

          --------------------
          2 ELECTRON INTEGRALS
          --------------------

 THE -PK- OPTION IS OFF, THE INTEGRALS ARE NOT IN SUPERMATRIX FORM.
 STORING   15000 INTEGRALS/RECORD ON DISK, USING 12 BYTES/INTEGRAL.
 TWO ELECTRON INTEGRAL EVALUATION REQUIRES   90567 WORDS OF MEMORY.
 SCHWARZ INEQUALITY OVERHEAD:      1080 INTEGRALS, T=        0.00
 II,JST,KST,LST =  1  1  1  1 NREC =         1 INTLOC =    1
 II,JST,KST,LST =  2  1  1  1 NREC =         1 INTLOC =    1
 II,JST,KST,LST =  3  1  1  1 NREC =         1 INTLOC =    1
 II,JST,KST,LST =  4  1  1  1 NREC =         1 INTLOC =   55
 II,JST,KST,LST =  5  1  1  1 NREC =         1 INTLOC =  398
 II,JST,KST,LST =  6  1  1  1 NREC =         1 INTLOC = 1781
 II,JST,KST,LST =  7  1  1  1 NREC =         1 INTLOC = 1781
 II,JST,KST,LST =  8  1  1  1 NREC =         1 INTLOC =13053
 II,JST,KST,LST =  9  1  1  1 NREC =         3 INTLOC = 5655
 II,JST,KST,LST = 10  1  1  1 NREC =         5 INTLOC = 2501
 II,JST,KST,LST = 11  1  1  1 NREC =         9 INTLOC =10074
 II,JST,KST,LST = 12  1  1  1 NREC =        11 INTLOC = 6889
 II,JST,KST,LST = 13  1  1  1 NREC =        11 INTLOC = 9106
 II,JST,KST,LST = 14  1  1  1 NREC =        13 INTLOC = 1136
 II,JST,KST,LST = 15  1  1  1 NREC =        14 INTLOC = 3904
 II,JST,KST,LST = 16  1  1  1 NREC =        15 INTLOC = 9990
 II,JST,KST,LST = 17  1  1  1 NREC =        16 INTLOC =10799
 II,JST,KST,LST = 18  1  1  1 NREC =        18 INTLOC = 5352
 SCHWARZ INEQUALITY TEST SKIPPED         917 INTEGRAL BLOCKS.
 TOTAL NUMBER OF NONZERO TWO-ELECTRON INTEGRALS =              539069
         37 INTEGRAL RECORDS WERE STORED ON DISK FILE  8.
  ...... END OF TWO-ELECTRON INTEGRALS .....
 CPU     0: STEP CPU TIME=     0.04 TOTAL CPU TIME=        0.1 (    0.0 MIN)
 TOTAL WALL CLOCK TIME=        0.1 SECONDS, CPU UTILIZATION IS  62.50%

          --------------------------
             R-B3LYP SCF CALCULATION
          --------------------------

     NUCLEAR ENERGY =        27.5851120569
     MAXIT =   30     NPUNCH=    2
     EXTRAP=T  DAMP=F  SHIFT=F  RSTRCT=F  DIIS=T  DEM=F  SOSCF=F
         DENSITY MATRIX CONVERGENCE THRESHOLD=  1.00E-06
     COARSE -> FINE DFT GRID SWITCH THRESHOLD=  3.00E-04 (SWITCH IN $DFT)
                   HF -> DFT SWITCH THRESHOLD=  5.00E-03 (SWOFF IN $DFT)
     MEMORY REQUIRED FOR RHF ITERS=    271743 WORDS.

 DFT CODE IS SWITCHING FROM THE FINE GRID NRAD= 96,  NLEB=  302
                      TO THE COARSE GRID NRAD0= 24, NLEB0=  110

     EXCHANGE FUNCTIONAL   =B88&HFX   
     CORRELATION FUNCTIONAL=LYP88&VWN5
     DFT THRESHOLD         =.230E-07
     GRID CHANGE THRESHOLD =.300E-03
 FOR AN EULER-MACLAURIN QUADRATURE USING  96 RADIAL POINTS:
 SMALLEST GAUSSIAN PRIMITIVE EXPONENT=        0.0438000000 OF TYPE -P-
 ON ATOM NUMBER   1 HAS RADIAL NORMALIZATION=  1.000000
  LARGEST GAUSSIAN PRIMITIVE EXPONENT=     4173.5114600000 OF TYPE -S-
 ON ATOM NUMBER   2 HAS RADIAL NORMALIZATION=  1.000000
 DFT IS SWITCHED OFF, PERFORMING PURE SCF UNTIL SWOFF THRESHOLD IS REACHED.

 ITER EX DEM     TOTAL ENERGY        E CHANGE  DENSITY CHANGE    DIIS ERROR
          * * *   INITIATING DIIS PROCEDURE   * * *
   1  0  0      -93.5880166863   -93.5880166863   0.339564668   0.447978326
   2  1  0      -93.6304008448    -0.0423841585   0.372907734   0.490263303
   3  2  0      -93.8701405291    -0.2397396843   0.188824084   0.226709313
   4  3  0      -94.0203949701    -0.1502544409   0.035808473   0.032123943
   5  4  0      -94.0295730979    -0.0091781278   0.026735200   0.031806650
   6  5  0      -94.0348682587    -0.0052951608   0.036145490   0.023605700
   7  6  0      -94.0380815487    -0.0032132901   0.005459560   0.004362751
   8  7  0      -94.0381504926    -0.0000689439   0.002907208   0.001705212
 CONVERGED TO SWOFF, SO DFT CALCULATION IS NOW SWITCHED ON.
          * * *   INITIATING DIIS PROCEDURE   * * *
   9  8  0      -94.5762458447    -0.5380953521   0.116924023   0.087602090
  10  9  0      -94.6010016407    -0.0247557960   0.249456399   0.040911331
  11 10  0      -94.4140308630     0.1869707777   0.160342321   0.393364174
  12 11  0      -94.6071697973    -0.1931389343   0.021030392   0.030347229
  13 12  0      -94.6074647974    -0.0002950001   0.017879132   0.038791089
  14 13  0      -94.6095748940    -0.0021100966   0.032901188   0.017208777
  15 14  0      -94.6102292514    -0.0006543574   0.003211906   0.005625200
  16 15  0      -94.6102843657    -0.0000551143   0.000493977   0.000111197
  17 16  0      -94.6102846950    -0.0000003293   0.000390925   0.000044592
  18 17  0      -94.6102847916    -0.0000000966   0.000287772   0.000129285
 DFT CODE IS SWITCHING BACK TO THE FINE GRID
          * * *   INITIATING DIIS PROCEDURE   * * *
  19 18  0      -94.6096195006     0.0006652910   0.001476923   0.001363195
  20 19  0      -94.6096220965    -0.0000025959   0.003432748   0.001111619
  21 20  0      -94.6095748831     0.0000472134   0.002349993   0.005418367
  22 21  0      -94.6096240376    -0.0000491545   0.000311248   0.000474193
  23 22  0      -94.6096243558    -0.0000003181   0.000303096   0.000250123
  24 23  0      -94.6096244784    -0.0000001226   0.000042914   0.000034001
  25 24  0      -94.6096244811    -0.0000000027   0.000008888   0.000002851
  26 25  0      -94.6096244811    -0.0000000001   0.000001113   0.000002390
  27 26  0      -94.6096244811    -0.0000000000   0.000000101   0.000000170

          -----------------
          DENSITY CONVERGED
          -----------------
     TIME TO FORM FOCK OPERATORS=       5.9 SECONDS (       0.2 SEC/ITER)
     TIME TO SOLVE SCF EQUATIONS=       0.1 SECONDS (       0.0 SEC/ITER)

 FINAL R-B3LYP ENERGY IS      -94.6096244811 AFTER  27 ITERATIONS
 DFT EXCHANGE + CORRELATION ENERGY =       -10.5701949378
 TOTAL ELECTRON NUMBER             =        16.0000341110

          ------------
          EIGENVECTORS
          ------------

                      1          2          3          4          5
                  -14.6578   -10.6300    -1.0691    -0.9552    -0.7369
                     A          A          A          A          A   
    1  C  1  S    0.000002   0.993047  -0.021110  -0.203922   0.000008
    2  C  1  S    0.000069   0.046770   0.044417   0.449141  -0.000015
    3  C  1  X   -0.000016   0.000303   0.011485  -0.115347   0.022601
    4  C  1  Y    0.000002  -0.000066  -0.001256   0.019584   0.089902
    5  C  1  Z    0.000001  -0.000006  -0.000986   0.005764   0.146367
    6  C  1  S   -0.000042  -0.009407   0.044480   0.411723  -0.000038
    7  C  1  X   -0.000060  -0.000069   0.005960  -0.044533   0.007584
    8  C  1  Y    0.000009  -0.000001  -0.000715   0.007704   0.030147
    9  C  1  Z    0.000004   0.000010  -0.000460   0.002139   0.049054
   10  C  1  S    0.000464   0.001034   0.024249  -0.004227  -0.000012
   11  C  1  X    0.000265   0.000430   0.013865  -0.003057  -0.000128
   12  C  1  Y   -0.000037  -0.000082  -0.001843   0.000558  -0.000495
   13  C  1  Z   -0.000018  -0.000016  -0.000986   0.000129  -0.000823
   14  C  1 XX   -0.000071  -0.009142   0.001169  -0.005440  -0.002091
   15  C  1 YY   -0.000001  -0.009092  -0.001517  -0.011393   0.001480
   16  C  1 ZZ   -0.000002  -0.008940  -0.000581   0.002872   0.000612
   17  C  1 XY    0.000011   0.000015  -0.000384  -0.000430  -0.004586
   18  C  1 XZ    0.000006   0.000044   0.000035   0.003408  -0.007800
   19  C  1 YZ   -0.000003   0.000176   0.001160   0.016809   0.001610
   20  N  2  S    0.992798  -0.000047  -0.207839   0.019187   0.000008
   21  N  2  S    0.033970  -0.000172   0.454699  -0.044449  -0.000019
   22  N  2  X    0.000051   0.000005   0.088428  -0.037808   0.062934
   23  N  2  Y    0.000024  -0.000000  -0.007502   0.004361   0.255400
   24  N  2  Z   -0.000023  -0.000001  -0.008934   0.003126   0.407740
   25  N  2  S    0.004301   0.000680   0.481649  -0.044052  -0.000034
   26  N  2  X   -0.000074  -0.000432   0.037302  -0.021785   0.031029
   27  N  2  Y   -0.000006   0.000056  -0.002722   0.002509   0.125963
   28  N  2  Z    0.000015   0.000032  -0.004046   0.001800   0.201096
   29  N  2  S   -0.000950   0.000007  -0.022160   0.001170   0.000019
   30  N  2  X    0.000376  -0.000264   0.021527   0.000479   0.001608
   31  N  2  Y   -0.000036   0.000047  -0.002562  -0.000257   0.006565
   32  N  2  Z   -0.000035   0.000012  -0.001738   0.000084   0.010505
   33  N  2 XX   -0.008165   0.000112   0.002014   0.000833   0.006411
   34  N  2 YY   -0.008142  -0.000152  -0.009091   0.000256  -0.002224
   35  N  2 ZZ   -0.008121  -0.000153   0.006033  -0.001790  -0.004188
   36  N  2 XY    0.000006  -0.000040   0.000406  -0.000395   0.014703
   37  N  2 XZ    0.000007  -0.000022   0.002285  -0.000465   0.023595
   38  N  2 YZ    0.000025   0.000006   0.018279  -0.002408  -0.003563
   39  H  3  S    0.000004  -0.000256   0.010827   0.171179   0.080158
   40  H  3  S   -0.000016   0.001499  -0.000483   0.031928   0.049563
   41  H  4  S    0.000004  -0.000256   0.010820   0.171165  -0.080193
   42  H  4  S   -0.000016   0.001498  -0.000464   0.031937  -0.049567
   43  H  5  S    0.000268   0.000005   0.149729  -0.022300  -0.230366
   44  H  5  S   -0.000375  -0.000132  -0.003971  -0.000739  -0.090277
   45  H  6  S    0.000268   0.000005   0.149747  -0.022290   0.230342
   46  H  6  S   -0.000375  -0.000134  -0.003955  -0.000732   0.090277

                      6          7          8          9         10
                   -0.7202    -0.6142    -0.5034    -0.4282    -0.4229
                     A          A          A          A          A   
    1  C  1  S    0.000001   0.036092   0.000649   0.066475  -0.057249
    2  C  1  S   -0.000002  -0.079846  -0.001675  -0.160631   0.138342
    3  C  1  X    0.063168  -0.362326   0.032508  -0.297022   0.343616
    4  C  1  Y    0.251595   0.056272   0.241070   0.376029   0.318965
    5  C  1  Z    0.410421   0.021342  -0.152580  -0.184918  -0.248550
    6  C  1  S   -0.000018  -0.138647  -0.002415  -0.277076   0.239416
    7  C  1  X    0.022528  -0.194092   0.021039  -0.191652   0.229063
    8  C  1  Y    0.089643   0.029683   0.165349   0.255090   0.221896
    9  C  1  Z    0.146220   0.011692  -0.104768  -0.126823  -0.171212
   10  C  1  S   -0.000000  -0.017133  -0.000594  -0.070928   0.068931
   11  C  1  X    0.000019  -0.019435   0.002364  -0.062361   0.070938
   12  C  1  Y    0.000076   0.002764   0.018901   0.053528   0.040927
   13  C  1  Z    0.000118   0.001303  -0.011945  -0.023235  -0.036002
   14  C  1 XX   -0.007243   0.002298  -0.000097   0.016842  -0.017856
   15  C  1 YY    0.004910   0.002214   0.000140   0.001809   0.002165
   16  C  1 ZZ    0.002331   0.007421   0.000136   0.002560  -0.002877
   17  C  1 XY   -0.015946   0.000029   0.000298  -0.009745  -0.005087
   18  C  1 XZ   -0.026952   0.001495  -0.000225   0.003926   0.005597
   19  C  1 YZ    0.005449   0.006127  -0.000094   0.003834  -0.003618
   20  N  2  S   -0.000000   0.035929   0.001885  -0.052788   0.046816
   21  N  2  S    0.000003  -0.074548  -0.004837   0.127625  -0.113375
   22  N  2  X   -0.023095   0.413847   0.027765  -0.308087   0.254500
   23  N  2  Y   -0.093572  -0.045271   0.474860  -0.144289  -0.235314
   24  N  2  Z   -0.149060  -0.035507  -0.301953   0.137828   0.107925
   25  N  2  S   -0.000005  -0.150736  -0.006711   0.227787  -0.203436
   26  N  2  X   -0.011541   0.267217   0.019413  -0.217749   0.182011
   27  N  2  Y   -0.046790  -0.029685   0.329903  -0.097362  -0.163257
   28  N  2  Z   -0.074518  -0.022674  -0.209652   0.094637   0.074142
   29  N  2  S   -0.000005   0.002635   0.001939   0.097035  -0.096847
   30  N  2  X   -0.000491   0.021712   0.002949  -0.067021   0.058993
   31  N  2  Y   -0.002001  -0.002310   0.059156  -0.027893  -0.048105
   32  N  2  Z   -0.003163  -0.001923  -0.037477   0.027715   0.020903
   33  N  2 XX   -0.002806   0.005892   0.000575  -0.018171   0.015337
   34  N  2 YY    0.001052   0.002120  -0.001029   0.002329   0.000232
   35  N  2 ZZ    0.001758   0.006536   0.000734  -0.000498  -0.000812
   36  N  2 XY   -0.006418   0.000602   0.007726  -0.004196  -0.009281
   37  N  2 XZ   -0.010348   0.000250  -0.005031   0.005743   0.003110
   38  N  2 YZ    0.001605   0.005139  -0.000653  -0.001381   0.001622
   39  H  3  S    0.234661   0.085876   0.000488   0.068573  -0.056837
   40  H  3  S    0.141336   0.059747   0.000127   0.079671  -0.067718
   41  H  4  S   -0.234665   0.085807   0.000131   0.068776  -0.056701
   42  H  4  S   -0.141327   0.059691  -0.000416   0.079979  -0.067480
   43  H  5  S    0.086566   0.100547   0.001960  -0.065357   0.056765
   44  H  5  S    0.034660   0.049495   0.000467  -0.070003   0.064090
   45  H  6  S   -0.086593   0.100589   0.001773  -0.065571   0.056463
   46  H  6  S   -0.034664   0.049565   0.000189  -0.070142   0.063876

                     11         12         13         14         15
                   -0.1729    -0.1385    -0.1208    -0.0898    -0.0870
                     A          A          A          A          A   
    1  C  1  S    0.091538   0.033346   0.000007  -0.000058  -0.001348
    2  C  1  S   -0.210066  -0.071676  -0.000006   0.000196   0.004044
    3  C  1  X    0.156936   0.248463  -0.051962   0.023113  -0.024134
    4  C  1  Y   -0.028447  -0.037210  -0.207588   0.086621  -0.235985
    5  C  1  Z   -0.006725  -0.015099  -0.338107   0.160491   0.140552
    6  C  1  S   -0.927671  -0.464510  -0.000189   0.000400   0.010537
    7  C  1  X    0.222195   0.290408  -0.077671   0.058308  -0.024704
    8  C  1  Y   -0.040505  -0.045342  -0.309924   0.227133  -0.222233
    9  C  1  Z   -0.009344  -0.016543  -0.505042   0.388559   0.119797
   10  C  1  S    1.121803  -0.064844   0.000509  -0.001565  -0.008830
   11  C  1  X    0.086482  -0.679807   0.111379  -0.001714   0.086341
   12  C  1  Y   -0.002898   0.096375   0.444752   0.013182   0.874850
   13  C  1  Z   -0.011298   0.044592   0.723518  -0.046359  -0.550301
   14  C  1 XX    0.002435  -0.004232   0.000273   0.005516  -0.000196
   15  C  1 YY    0.011690   0.002816  -0.000161  -0.003664  -0.000405
   16  C  1 ZZ    0.011944   0.002644  -0.000112  -0.001884  -0.000213
   17  C  1 XY    0.001649   0.001204   0.000609   0.012255   0.000972
   18  C  1 XZ    0.000697   0.000445   0.001030   0.020456  -0.001807
   19  C  1 YZ   -0.000004  -0.000439  -0.000202  -0.004084  -0.000050
[...]
    CURRENT VECTORS   34 TO  35 (   2 VECTORS)
    STATE NUMBER   1  ENERGY =    0.252053 EV
    STATE NUMBER   2  ENERGY =    1.533789 EV
    MAX ERROR =  9.187E-05 / 1.000E-07
 ITERATION #                    13
    CURRENT VECTORS   36 TO  37 (   2 VECTORS)
    STATE NUMBER   1  ENERGY =    0.252053 EV
    STATE NUMBER   2  ENERGY =    1.533789 EV
    MAX ERROR =  9.187E-05 / 1.000E-07
 ITERATION #                    14
    CURRENT VECTORS   38 TO  39 (   2 VECTORS)
    STATE NUMBER   1  ENERGY =    0.252053 EV
    STATE NUMBER   2  ENERGY =    1.533789 EV
    MAX ERROR =  9.187E-05 / 1.000E-07
 ITERATION #                    15
    CURRENT VECTORS   40 TO  41 (   2 VECTORS)
    STATE NUMBER   1  ENERGY =    0.252053 EV
    STATE NUMBER   2  ENERGY =    1.533789 EV
    MAX ERROR =  9.187E-05 / 1.000E-07
 ITERATION #                    16
    CURRENT VECTORS   42 TO  43 (   2 VECTORS)
    STATE NUMBER   1  ENERGY =    0.252053 EV
    STATE NUMBER   2  ENERGY =    1.533789 EV
    MAX ERROR =  9.187E-05 / 1.000E-07
 ITERATION #                    17
    CURRENT VECTORS   44 TO  45 (   2 VECTORS)
    STATE NUMBER   1  ENERGY =    0.251876 EV
    STATE NUMBER   2  ENERGY =    0.522813 EV
    MAX ERROR =  3.424E-02 / 1.000E-07
 ITERATION #                    18
    CURRENT VECTORS   46 TO  49 (   4 VECTORS)
    STATE NUMBER   1  ENERGY =    0.000124 EV
    STATE NUMBER   2  ENERGY =    0.252383 EV
    MAX ERROR =  9.617E-04 / 1.000E-07
 ITERATION #                    19
    CURRENT VECTORS   50 TO  53 (   4 VECTORS)
 NUMBER OF MINUS EIGENVALUES=                    1
    STATE NUMBER   1  ENERGY =    0.000094 EV
    STATE NUMBER   2  ENERGY =    0.252383 EV
    MAX ERROR =  9.211E-05 / 1.000E-07
 ITERATION #                    20
    CURRENT VECTORS   54 TO  56 (   3 VECTORS)
 NUMBER OF MINUS EIGENVALUES=                    1
    STATE NUMBER   1  ENERGY =    0.000096 EV
    STATE NUMBER   2  ENERGY =    0.252383 EV
    MAX ERROR =  9.210E-05 / 1.000E-07
 ITERATION #                    21
    CURRENT VECTORS   57 TO  59 (   3 VECTORS)
 NUMBER OF MINUS EIGENVALUES=                    1
    STATE NUMBER   1  ENERGY =    0.000150 EV
    STATE NUMBER   2  ENERGY =    0.000145 EV
 LARGE ERROR DETECTED
 STATE#=                    2
 ERROR LEFT/RIGHT=  4.75517328119455317E-007 /   450519.40751760482     
    MAX ERROR =  0.000E+00 / 1.000E-07
  
   ---------------------------------  
     R-TDDFT CALCULATION CONVERGED
   ---------------------------------  
 NUMBER OF USED VECTORS / MAX =  59 / 100
 NUMBER OF ITERATIONS   / MAX =  21 / 100
 NUMBER OF SINGLE EXCITATIONS =   304
 NUMBER OF ATOMIC ORBITALS    =  46
 NUMBER OF ELECTRONS          =          16.0000011

          -------------------
          SINGLET EXCITATIONS
          -------------------

 STATE #   2  ENERGY =    0.000145 EV
 OSCILLATOR STRENGTH =    0.000000
 LAMBDA DIAGNOSTIC   =      NaN (RYDBERG/CHARGE TRANSFER CHARACTER)
 SYMMETRY OF STATE   =       
                 EXCITATION  DE-EXCITATION
     OCC     VIR  AMPLITUDE      AMPLITUDE
      I       A     X(I->A)        Y(A->I)
     ---     ---   --------       --------
      1       9    2.775457      -2.775462
      2       9   -2.470521       2.470517
      3       9    6.312488      -6.312656
      4       9    8.638035      -8.637613
      5       9    5.788528      -5.788481
      6       9    0.131510      -0.131511
      7       9   -3.562540       3.562354
      8       9   *********      24.491272
      1      10   -5.275328       5.275327
      2      10    2.433297      -2.433283
      3      10   *********      21.774182
      4      10   *********      14.007941
      5      10   -0.334445       0.334573
      6      10    0.574741      -0.574751
      7      10    3.779071      -3.779382
      8      10   *********      18.576229
      1      11    1.083494      -1.083492
      2      11   -0.168433       0.168434
      3      11    3.989876      -3.989833
      4      11   -6.281615       6.281571
      5      11   -3.178843       3.178794
      6      11    1.288077      -1.288064
      7      11   13.806596      *********
      8      11   *********      38.628096
      1      12   -1.372539       1.372537
      2      12   -0.212000       0.211999
      3      12   -5.063583       5.063523
      4      12   -4.213959       4.213941
      5      12    3.806399      -3.806338
      6      12   -3.368951       3.368881
      7      12    5.753429      -5.753322
      8      12   *********      48.541968
      1      13   -0.044673       0.044672
      2      13    0.078795      -0.078797
      3      13    1.012095      -1.012070
      4      13    0.403841      -0.403822
      5      13    5.619370      -5.619311
      6      13   -0.534732       0.534785
      7      13    4.389945      -4.389827
      8      13    7.334141      -7.333996
      1      14    0.140626      -0.140623
      2      14   -0.034461       0.034460
      3      14    0.377483      -0.377511
      4      14   -1.860373       1.860356
      5      14    3.986125      -3.986074
      6      14   10.650941      *********
      7      14   *********      13.616086
      8      14   22.365387      *********
      1      15    2.032642      -2.032641
      2      15    1.091128      -1.091124
      3      15   17.797564      *********
      4      15    2.804939      -2.805039
      5      15    2.975579      -2.975526
      6      15    3.906814      -3.906722
      7      15   *********      14.345651
      8      15   -3.250907       3.250846
      1      16   -0.669391       0.669390
      2      16    0.074640      -0.074638
      3      16    3.377438      -3.377413
      4      16   -1.738219       1.738200
      5      16    3.163358      -3.163312
      6      16    0.514848      -0.514812
      7      16   -1.059944       1.060012
      8      16   *********      17.876587
      1      17   -0.124564       0.124562
      2      17   -0.034361       0.034359
      3      17   -2.549374       2.549376
      4      17    1.266119      -1.266096
      5      17    5.928084      -5.928002
      6      17   11.019689      *********
      7      17   -7.347604       7.347528
      8      17   *********      19.991408
      1      18   -0.265138       0.265137
      2      18    0.616144      -0.616144
      3      18   -1.215555       1.215514
      4      18   -0.176234       0.176227
      5      18    1.987453      -1.987431
      6      18    6.243980      -6.243904
      7      18    7.099551      -7.099497
      8      18   27.012529      *********
      1      19   -3.877971       3.877972
      2      19    0.570581      -0.570579
      3      19   -1.276875       1.276932
      4      19   -7.443779       7.443671
      5      19   -3.898851       3.898802
      6      19    1.430561      -1.430531
      7      19   14.628922      *********
      8      19    4.051241      -4.051169
      1      20   -1.667104       1.667100
      2      20    0.079139      -0.079140
      3      20   -2.316262       2.316220
      4      20    0.942788      -0.942781
      5      20   -6.035538       6.035494
      6      20   -0.629935       0.629914
      7      20   -7.714038       7.713898
      8      20   -3.969476       3.969560
      1      21    0.127203      -0.127203
      2      21   -0.163908       0.163907
      3      21    3.290800      -3.290764
      4      21    5.881871      -5.881784
      5      21    1.687683      -1.687668
      6      21   -2.589704       2.589673
      7      21   *********      14.918545
      8      21   41.069130      *********
      1      22    0.132498      -0.132497
      2      22    0.049007      -0.049009
      3      22    4.169174      -4.169138
      4      22   -1.131117       1.131115
      5      22   -7.368489       7.368501
      6      22    8.627012      -8.626895
      7      22   -0.065110       0.065134
      8      22    2.835649      -2.835621
      1      23   -0.240856       0.240853
      2      23    0.113439      -0.113442
      3      23   -1.471841       1.471839
      4      23   -2.959475       2.959463
      5      23    1.780283      -1.780303
      6      23   -7.248834       7.248727
      7      23   -1.692336       1.692325
      8      23   -2.993949       2.993886
      1      24   -1.915926       1.915925
      2      24   -2.536385       2.536378
      3      24   -7.812007       7.811931
      4      24    5.113743      -5.113582
      5      24    1.330836      -1.330843
      6      24    3.782342      -3.782357
      7      24   -7.684368       7.684213
      8      24    6.550750      -6.550741
      1      25   -0.685125       0.685123
      2      25   -0.979167       0.979161
      3      25   -0.458408       0.458408
      4      25   -3.297293       3.297320
      5      25    0.637261      -0.637256
      6      25   -0.779822       0.779796
      7      25   -8.907372       8.907256
      8      25   12.477086      *********
      1      26   -0.662518       0.662516
      2      26    0.106770      -0.106772
      3      26    0.681364      -0.681355
      4      26   -4.918920       4.918867
      5      26    0.179584      -0.179599
      6      26    3.632044      -3.632036
      7      26   -5.610043       5.609945
      8      26   -2.993022       2.992994
      1      27   -3.143492       3.143490
      2      27   -0.415728       0.415729
      3      27   -2.035555       2.035559
      4      27   -2.446769       2.446739
      5      27    4.210279      -4.210222
      6      27   -1.069264       1.069243
      7      27   -6.225683       6.225687
      8      27   *********      28.112786
      1      28   *********      15.177209
      2      28    0.428046      -0.428044
      3      28   -6.684008       6.684037
      4      28   -6.253911       6.253858
      5      28    0.770128      -0.770147
      6      28   -0.686243       0.686254
      7      28   -3.923779       3.923870
      8      28    2.362817      -2.362789
      1      29   -0.997258       0.997256
      2      29    0.926687      -0.926687
      3      29    0.254882      -0.254878
      4      29   -0.777197       0.777214
      5      29   -0.063112       0.063116
      6      29   -2.383401       2.383385
      7      29   -2.297442       2.297431
      8      29    6.025487      -6.025366
      1      30   -0.494910       0.494906
      2      30   -0.058298       0.058296
      3      30   -1.543503       1.543502
      4      30    0.064675      -0.064680
      5      30    2.751990      -2.751961
      6      30   -1.501908       1.501917
      7      30    1.978101      -1.978076
      8      30    1.696104      -1.696123
      1      31    0.317348      -0.317343
      3      31    1.628457      -1.628453
      4      31   -0.738305       0.738294
      5      31   -1.599055       1.599033
      6      31    1.522849      -1.522852
      7      31    2.281584      -2.281566
      8      31    7.381627      -7.381517
      1      32    1.868536      -1.868532
      3      32    3.368922      -3.368898
      4      32    0.941179      -0.941167
      5      32   -0.424614       0.424627
      6      32   -0.418063       0.418055
      7      32   -3.904417       3.904393
      8      32    7.034179      -7.034226
      1      33   -0.211646       0.211643
      3      33   -3.549086       3.549042
      4      33   -0.110045       0.110043
      5      33    6.077982      -6.077908
      6      33   -2.076750       2.076726
      7      33   -2.060136       2.060131
      8      33   -2.130342       2.130307
      1      34    1.623305      -1.623301
      2      34   -0.538662       0.538660
      3      34   -6.154095       6.154048
      4      34   -1.420346       1.420352
      5      34   -0.352722       0.352711
      6      34   -0.263803       0.263803
      7      34   *********      14.463256
      8      34   *********      54.827898
      2      35    0.094209      -0.094208
      3      35   -0.583734       0.583727
      4      35    3.425826      -3.425791
      5      35    4.943456      -4.943416
      6      35   12.634623      *********
      7      35    1.033918      -1.033903
      8      35   -0.392565       0.392579
      1      36    1.954531      -1.954529
      2      36   -1.322566       1.322562
      3      36    3.266717      -3.266717
      4      36    0.249196      -0.249192
      5      36   -0.081468       0.081468
      6      36    3.545221      -3.545176
      7      36    7.972947      -7.972908
      8      36    2.732931      -2.732917
      1      37   -1.299256       1.299254
      2      37    1.762879      -1.762878
      3      37    3.498724      -3.498690
      4      37    1.618634      -1.618634
      5      37    0.625520      -0.625515
      6      37    1.662652      -1.662644
      7      37   13.403434      *********
      8      37    3.429811      -3.429728
      3      38    2.957971      -2.957953
      4      38   -0.191158       0.191155
      5      38   -2.822952       2.822759
      6      38   -1.083166       1.083225
      7      38   -0.278245       0.278243
      8      38    3.968268      -3.968251
      1      39    2.440246      -2.440246
      2      39   -0.083274       0.083273
      3      39   *********      36.475722
      4      39   11.489080      *********
      5      39   -1.148947       1.148937
      6      39    0.990749      -0.990737
      7      39   *********      15.859118
      8      39    2.331250      -2.331252
      1      40   -2.226451       2.226446
      2      40   -1.561858       1.561857
      3      40    3.536642      -3.536630
      4      40    1.508336      -1.508309
      5      40   -0.786858       0.786849
      6      40   -0.223040       0.223038
      7      40   -0.970264       0.970266
      8      40   -3.108191       3.108272
      1      41   -1.124645       1.124642
      2      41    0.898914      -0.898912
      3      41    1.375986      -1.375976
      4      41   -1.179979       1.179987
      5      41   -0.621434       0.621436
      6      41   -0.815655       0.815671
      7      41    1.457524      -1.457521
      8      41    3.779198      -3.779130
      2      42   -0.171072       0.171071
      3      42    0.378343      -0.378337
      4      42    0.352081      -0.352084
      5      42   -1.521660       1.521657
      6      42   -1.631885       1.631903
      7      42    2.135098      -2.135091
      8      42    1.805364      -1.805347
      1      43   -1.981029       1.981025
      2      43    0.274725      -0.274725
      3      43   -0.978581       0.978561
      4      43   -0.832718       0.832719
      5      43    4.641908      -4.641871
      6      43   -1.706846       1.706831
      7      43   -4.049315       4.049303
      8      43    3.554269      -3.554130
      1      44   -0.111274       0.111272
      3      44   -1.733552       1.733519
      4      44   -0.060656       0.060651
      5      44    2.789441      -2.789424
      6      44   -1.461273       1.461269
      7      44   -2.914372       2.914347
      8      44   -0.503240       0.503228
      1      45   -4.112363       4.112353
      2      45    0.098656      -0.098655
      3      45    7.160478      -7.160446
      4      45    0.444389      -0.444387
      6      45    0.066265      -0.066264
      7      45    5.891607      -5.891595
      8      45    1.141429      -1.141386
      1      46   -0.179875       0.179874
      2      46    2.203755      -2.203756
      3      46    0.994667      -0.994661
      4      46   -8.589263       8.589228
      5      46    0.060598      -0.060598
      6      46    0.177019      -0.177018
      7      46    0.737883      -0.737878
      8      46    1.741205      -1.741188

                          SUMMARY OF TDDFT RESULTS

   STATE             ENERGY     EXCITATION  TRANSITION DIPOLE, A.U.  OSCILLATOR
                    HARTREE          EV         X       Y       Z     STRENGTH
   0  A          -94.6096244811    0.000
   1            -94.6096189720    0.000        NaN     NaN     NaN      NaN
   2            -94.6096191673    0.000    -0.0007  0.0004 -0.0004    0.000
  
 SELECTING EXCITED STATE IROOT=   1 AT E=      -94.6096189720
 AS THE STATE OF INTEREST.

 ..... DONE WITH TD-DFT EXCITATION ENERGIES .....
 CPU     0: STEP CPU TIME=    10.96 TOTAL CPU TIME=       17.0 (    0.3 MIN)
 TOTAL WALL CLOCK TIME=       21.6 SECONDS, CPU UTILIZATION IS  78.74%

 -----------------------------------------------------------------------
                   TD-DFT ENERGY GRADIENT CALCULATION
                   CODED BY MAHITO CHIBA (AIST, JAPAN)
 -----------------------------------------------------------------------

    -------------------------
       START Z-VECTOR LOOP
    -------------------------
 INITIAL ERROR =        NaN, MUST CONVERGE TO 1.000E-10
 ITER# 1 ERROR =        NaN
 ITER# 2 ERROR =        NaN
 ITER# 3 ERROR =        NaN
 ITER# 4 ERROR =        NaN
 ITER# 5 ERROR =        NaN
 ITER# 6 ERROR =        NaN
 ITER# 7 ERROR =        NaN
 ITER# 8 ERROR =        NaN
 ITER# 9 ERROR =        NaN
 ITER#10 ERROR =        NaN
 ITER#11 ERROR =        NaN
 ITER#12 ERROR =        NaN
 ITER#13 ERROR =        NaN
 ITER#14 ERROR =        NaN
 ITER#15 ERROR =        NaN
 ITER#16 ERROR =        NaN
 ITER#17 ERROR =        NaN
 ITER#18 ERROR =        NaN
 ITER#19 ERROR =        NaN
 ITER#20 ERROR =        NaN
 ITER#21 ERROR =        NaN
 ITER#22 ERROR =        NaN
 ITER#23 ERROR =        NaN
 ITER#24 ERROR =        NaN
 ITER#25 ERROR =        NaN
 ITER#26 ERROR =        NaN
 ITER#27 ERROR =        NaN
 ITER#28 ERROR =        NaN
 ITER#29 ERROR =        NaN
 ITER#30 ERROR =        NaN
 ITER#31 ERROR =        NaN
 ITER#32 ERROR =        NaN
 ITER#33 ERROR =        NaN
 ITER#34 ERROR =        NaN
 ITER#35 ERROR =        NaN
 ITER#36 ERROR =        NaN
 ITER#37 ERROR =        NaN
 ITER#38 ERROR =        NaN
 ITER#39 ERROR =        NaN
 ITER#40 ERROR =        NaN
 ITER#41 ERROR =        NaN
 ITER#42 ERROR =        NaN
 ITER#43 ERROR =        NaN
 ITER#44 ERROR =        NaN
 ITER#45 ERROR =        NaN
 ITER#46 ERROR =        NaN
 ITER#47 ERROR =        NaN
 ITER#48 ERROR =        NaN
 ITER#49 ERROR =        NaN
 ITER#50 ERROR =        NaN
     XXXXXXXXXXXXXXXXXXXXXXXXXXXXXXX   
       Z-VECTOR FAILED TO CONVERGE
     XXXXXXXXXXXX STOP XXXXXXXXXXXXX   
  ITER/MXITER=                   51 /                   50
 EXECUTION OF GAMESS TERMINATED -ABNORMALLY- AT Wed Apr 30 16:23:12 2014
               580000  WORDS OF DYNAMIC MEMORY USED
 CPU     0: STEP CPU TIME=     8.31 TOTAL CPU TIME=       25.4 (    0.4 MIN)
 TOTAL WALL CLOCK TIME=       31.3 SECONDS, CPU UTILIZATION IS  81.07%
 DDI Process 0: error code 911
 ddikick.x: application process 0 quit unexpectedly.
 ddikick.x: Fatal error detected.
 The error is most likely to be in the application, so check for
 input errors, disk space, memory needs, application bugs, etc.
 ddikick.x will now clean up all processes, and exit...
 DDI Process 1: terminated upon request.
 LARGE ERROR DETECTED
 STATE#=                    2
 ERROR LEFT/RIGHT=  4.75517328119455317E-007 /   450519.40751760482     
 ddikick.x: Sending kill signal to DDI processes.
 ddikick.x: Execution terminated due to error(s).
unset echo
----- accounting info -----
Files used on the master node eam were:
-rw-rw-r-- 1 dulikai dulikai     669 Apr 30 16:22 /tmp/dulikai/gamess.F05
-rw-rw-r-- 1 dulikai dulikai 3600320 Apr 30 16:22 /tmp/dulikai/gamess.F08
-rw-rw-r-- 1 dulikai dulikai 3060272 Apr 30 16:22 /tmp/dulikai/gamess.F08.001
-rw-rw-r-- 1 dulikai dulikai 1570560 Apr 30 16:23 /tmp/dulikai/gamess.F10
-rw-rw-r-- 1 dulikai dulikai 1169680 Apr 30 16:22 /tmp/dulikai/gamess.F22
-rw-rw-r-- 1 dulikai dulikai 1169680 Apr 30 16:22 /tmp/dulikai/gamess.F22.001
ls: No match.
ls: No match.
ls: No match.
Wed Apr 30 16:23:14 CST 2014
0.0u 0.0s 0:33.53 0.0% 0+0k 256+200io 6pf+0w
