 Entering Gaussian System, Link 0=g09
 Input=gaussian.gjf
 Output=gaussian.log
 Initial command:
 /opt//g09/l1.exe /tmp/Gau-28540.inp -scrdir=/tmp/
 Entering Link 1 = /opt//g09/l1.exe PID=     28542.
  
 Copyright (c) 1988,1990,1992,1993,1995,1998,2003,2009, Gaussian, Inc.
                  All Rights Reserved.
  
 This is part of the Gaussian(R) 09 program.  It is based on
 the Gaussian(R) 03 system (copyright 2003, Gaussian, Inc.),
 the Gaussian(R) 98 system (copyright 1998, Gaussian, Inc.),
 the Gaussian(R) 94 system (copyright 1995, Gaussian, Inc.),
 the Gaussian 92(TM) system (copyright 1992, Gaussian, Inc.),
 the Gaussian 90(TM) system (copyright 1990, Gaussian, Inc.),
 the Gaussian 88(TM) system (copyright 1988, Gaussian, Inc.),
 the Gaussian 86(TM) system (copyright 1986, Carnegie Mellon
 University), and the Gaussian 82(TM) system (copyright 1983,
 Carnegie Mellon University). Gaussian is a federally registered
 trademark of Gaussian, Inc.
  
 This software contains proprietary and confidential information,
 including trade secrets, belonging to Gaussian, Inc.
  
 This software is provided under written license and may be
 used, copied, transmitted, or stored only in accord with that
 written license.
  
 The following legend is applicable only to US Government
 contracts under FAR:
  
                    RESTRICTED RIGHTS LEGEND
  
 Use, reproduction and disclosure by the US Government is
 subject to restrictions as set forth in subparagraphs (a)
 and (c) of the Commercial Computer Software - Restricted
 Rights clause in FAR 52.227-19.
  
 Gaussian, Inc.
 340 Quinnipiac St., Bldg. 40, Wallingford CT 06492
  
  
 ---------------------------------------------------------------
 Warning -- This program may not be used in any manner that
 competes with the business of Gaussian, Inc. or will provide
 assistance to any competitor of Gaussian, Inc.  The licensee
 of this program is prohibited from giving any competitor of
 Gaussian, Inc. access to this program.  By using this program,
 the user acknowledges that Gaussian, Inc. is engaged in the
 business of creating and licensing software in the field of
 computational chemistry and represents and warrants to the
 licensee that it is not a competitor of Gaussian, Inc. and that
 it will not use this program in any manner prohibited above.
 ---------------------------------------------------------------
  

 Cite this work as:
 Gaussian 09, Revision A.01,
 M. J. Frisch, G. W. Trucks, H. B. Schlegel, G. E. Scuseria, 
 M. A. Robb, J. R. Cheeseman, G. Scalmani, V. Barone, B. Mennucci, 
 G. A. Petersson, H. Nakatsuji, M. Caricato, X. Li, H. P. Hratchian, 
 A. F. Izmaylov, J. Bloino, G. Zheng, J. L. Sonnenberg, M. Hada, 
 M. Ehara, K. Toyota, R. Fukuda, J. Hasegawa, M. Ishida, T. Nakajima, 
 Y. Honda, O. Kitao, H. Nakai, T. Vreven, J. A. Montgomery, Jr., 
 J. E. Peralta, F. Ogliaro, M. Bearpark, J. J. Heyd, E. Brothers, 
 K. N. Kudin, V. N. Staroverov, R. Kobayashi, J. Normand, 
 K. Raghavachari, A. Rendell, J. C. Burant, S. S. Iyengar, J. Tomasi, 
 M. Cossi, N. Rega, J. M. Millam, M. Klene, J. E. Knox, J. B. Cross, 
 V. Bakken, C. Adamo, J. Jaramillo, R. Gomperts, R. E. Stratmann, 
 O. Yazyev, A. J. Austin, R. Cammi, C. Pomelli, J. W. Ochterski, 
 R. L. Martin, K. Morokuma, V. G. Zakrzewski, G. A. Voth, 
 P. Salvador, J. J. Dannenberg, S. Dapprich, A. D. Daniels, 
 O. Farkas, J. B. Foresman, J. V. Ortiz, J. Cioslowski, 
 and D. J. Fox, Gaussian, Inc., Wallingford CT, 2009.
 
 ******************************************
 Gaussian 09:  EM64L-G09RevA.01  8-May-2009
                 6-Jan-2014 
 ******************************************
 %chk=gaussian.chk
 %mem=1GB
 %nproc=2
 Will use up to    2 processors via shared memory.
 ----------------------------------------------------------------------
 # force td(singlet, root=1, nstates=2) cam-b3lyp/6-31g* scf=(tight,max
 cycle=10000) iop(9/40=20) nosymm pop=full
 ----------------------------------------------------------------------
 1/10=7,30=1,38=1/1,3;
 2/12=2,15=1,17=6,18=5,40=1/2;
 3/5=1,6=6,7=1,11=2,16=1,25=1,30=1,71=1,74=-40/1,2,8,3;
 4//1;
 5/5=2,7=10000,32=2,38=5/2;
 8/6=1,10=2,107=1,108=2/1;
 9/8=1,15=2,40=20,41=2,42=1,48=1/14;
 10/5=4,31=1/2;
 6/7=3,18=1/1;
 7/12=6,13=5,14=1,29=1,30=1/1,2,3,16;
 1/10=7,30=1/3;
 99//99;
 -------
 [0] [0]
 -------
 Symbolic Z-matrix:
 Charge =  1 Multiplicity = 1
 c                    -0.9708    0.14152   0.08853 
 n                     0.31631  -0.04511  -0.03745 
 h                    -11.47568   0.79305   0.36989 
 h                    -11.25135   2.09613   1.23973 
 h                     0.474    -1.09463  -0.03713 
 h                     0.74221   0.92765  -0.15404 
 

 GradGradGradGradGradGradGradGradGradGradGradGradGradGradGradGradGradGrad
 Berny optimization.
 Initialization pass.
 Trust Radius=3.00D-01 FncErr=1.00D-07 GrdErr=1.00D-07
 Number of steps in this run=   2 maximum allowed number of steps=   2.
 GradGradGradGradGradGradGradGradGradGradGradGradGradGradGradGradGradGrad

                          Input orientation:                          
 ---------------------------------------------------------------------
 Center     Atomic      Atomic             Coordinates (Angstroms)
 Number     Number       Type             X           Y           Z
 ---------------------------------------------------------------------
      1          6           0       -0.970798    0.141518    0.088531
      2          7           0        0.316313   -0.045114   -0.037447
      3          1           0      -11.475682    0.793050    0.369888
      4          1           0      -11.251347    2.096129    1.239732
      5          1           0        0.473999   -1.094631   -0.037133
      6          1           0        0.742209    0.927646   -0.154044
 ---------------------------------------------------------------------
                    Distance matrix (angstroms):
                    1          2          3          4          5
     1  C    0.000000
     2  N    1.306659   0.000000
     3  H   10.528829  11.828761   0.000000
     4  H   10.527842  11.833295   1.582710   0.000000
     5  H    1.905595   1.061296  12.104704  12.218636   0.000000
     6  H    1.900325   1.068291  12.229860  12.130677   2.043333
                    6
     6  H    0.000000
 Symmetry turned off by external request.
 Stoichiometry    CH4N(1+)
 Framework group  C1[X(CH4N)]
 Deg. of freedom    12
 Full point group                 C1      NOp   1
 Rotational constants (GHZ):    149.4354429      2.0090817      1.9874169
 Standard basis: 6-31G(d) (6D, 7F)
 Integral buffers will be    131072 words long.
 Raffenetti 2 integral format.
 Two-electron integral symmetry is turned off.
    38 basis functions,    72 primitive gaussians,    38 cartesian basis functions
     8 alpha electrons        8 beta electrons
       nuclear repulsion energy        29.3006744614 Hartrees.
 NAtoms=    6 NActive=    6 NUniq=    6 SFac= 7.50D-01 NAtFMM=   80 NAOKFM=F Big=F
 One-electron integrals computed using PRISM.
 NBasis=    38 RedAO= T  NBF=    38
 NBsUse=    38 1.00D-06 NBFU=    38
 Harris functional with IExCor=20419 diagonalized for initial guess.
 ExpMin= 1.61D-01 ExpMax= 4.17D+03 ExpMxC= 6.27D+02 IAcc=1 IRadAn=         1 AccDes= 0.00D+00
 HarFok:  IExCor=20419 AccDes= 0.00D+00 IRadAn=         1 IDoV= 1
 ScaDFX=  1.000000  1.000000  1.000000  1.000000
 FoFCou: FMM=F IPFlag=           0 FMFlag=      100000 FMFlg1=           0
         NFxFlg=           0 DoJE=T BraDBF=F KetDBF=T FulRan=T
         Omega=  0.000000  0.000000  1.000000  0.000000  0.000000 ICntrl=     500 IOpCl=  0
         NMat0=    1 NMatS0=    1 NMatT0=    0 NMatD0=    1 NMtDS0=    0 NMtDT0=    0
         I1Cent=           4 NGrid=           0.
 Symmetry not used in FoFCou.
 Requested convergence on RMS density matrix=1.00D-08 within**** cycles.
 Requested convergence on MAX density matrix=1.00D-06.
 Requested convergence on             energy=1.00D-06.
 No special actions if energy rises.
 Integral accuracy reduced to 1.0D-05 until final iterations.
 FoFJK:  IHMeth= 1 ICntrl=     0 DoSepK=T KAlg= 1 I1Cent= 0 FoldK=F
 FoFJK:  IHMeth= 1 ICntrl=     0 DoSepK=T KAlg= 1 I1Cent= 0 FoldK=F
 FoFJK:  IHMeth= 1 ICntrl=     0 DoSepK=T KAlg= 1 I1Cent= 0 FoldK=F
 FoFJK:  IHMeth= 1 ICntrl=     0 DoSepK=T KAlg= 1 I1Cent= 0 FoldK=F
 FoFJK:  IHMeth= 1 ICntrl=     0 DoSepK=T KAlg= 1 I1Cent= 0 FoldK=F
 FoFJK:  IHMeth= 1 ICntrl=     0 DoSepK=T KAlg= 1 I1Cent= 0 FoldK=F
 Initial convergence to 1.0D-05 achieved.  Increase integral accuracy.
 FoFJK:  IHMeth= 1 ICntrl=     0 DoSepK=T KAlg= 1 I1Cent= 0 FoldK=F
 FoFJK:  IHMeth= 1 ICntrl=     0 DoSepK=T KAlg= 1 I1Cent= 0 FoldK=F
 FoFJK:  IHMeth= 1 ICntrl=     0 DoSepK=T KAlg= 1 I1Cent= 0 FoldK=F
 FoFJK:  IHMeth= 1 ICntrl=     0 DoSepK=T KAlg= 1 I1Cent= 0 FoldK=F
 FoFJK:  IHMeth= 1 ICntrl=     0 DoSepK=T KAlg= 1 I1Cent= 0 FoldK=F
 FoFJK:  IHMeth= 1 ICntrl=     0 DoSepK=T KAlg= 1 I1Cent= 0 FoldK=F
 SCF Done:  E(RCAM-B3LYP) =  -94.5873371090     A.U. after   12 cycles
             Convg  =    0.5259D-08             -V/T =  2.0141
 ExpMin= 1.61D-01 ExpMax= 4.17D+03 ExpMxC= 6.27D+02 IAcc=1 IRadAn=         1 AccDes= 0.00D+00
 HarFok:  IExCor=  205 AccDes= 0.00D+00 IRadAn=         1 IDoV=-2
 ScaDFX=  1.000000  1.000000  1.000000  1.000000
 Range of M.O.s used for correlation:     3    38
 NBasis=    38 NAE=     8 NBE=     8 NFC=     2 NFV=     0
 NROrb=     36 NOA=     6 NOB=     6 NVA=    30 NVB=    30

 **** Warning!!: The smallest alpha delta epsilon is  0.66088671D-01

     8 initial guesses have been made.
 Convergence on wavefunction:    0.000001000000000
 Iteration     1 Dimension     8 NMult     8
 CISAX will form     8 AO SS matrices at one time.
 FoFJK:  IHMeth= 1 ICntrl=     0 DoSepK=T KAlg= 1 I1Cent= 0 FoldK=F
 FoFJK:  IHMeth= 1 ICntrl=     0 DoSepK=T KAlg= 1 I1Cent= 0 FoldK=F
 Iteration     2 Dimension    12 NMult    12
 FoFJK:  IHMeth= 1 ICntrl=     0 DoSepK=T KAlg= 1 I1Cent= 0 FoldK=F
 FoFJK:  IHMeth= 1 ICntrl=     0 DoSepK=T KAlg= 1 I1Cent= 0 FoldK=F
 Iteration     3 Dimension    16 NMult    16
 FoFJK:  IHMeth= 1 ICntrl=     0 DoSepK=T KAlg= 1 I1Cent= 0 FoldK=F
 FoFJK:  IHMeth= 1 ICntrl=     0 DoSepK=T KAlg= 1 I1Cent= 0 FoldK=F
 Iteration     4 Dimension    19 NMult    19
 FoFJK:  IHMeth= 1 ICntrl=     0 DoSepK=T KAlg= 1 I1Cent= 0 FoldK=F
 FoFJK:  IHMeth= 1 ICntrl=     0 DoSepK=T KAlg= 1 I1Cent= 0 FoldK=F
 ***********************************************************************
 Excited states from <AA,BB:AA,BB> singles matrix:
 ***********************************************************************
 
 Ground to excited state transition electric dipole moments (Au):
       state          X           Y           Z        Dip. S.      Osc.
         1         0.0000      0.0000      0.0000      0.0000      0.0000
         2         0.0000      0.0000      0.0000      0.0000      0.0000
 Ground to excited state transition velocity dipole moments (Au):
       state          X           Y           Z        Dip. S.      Osc.
         1         0.0000      0.0000      0.0000      0.0000      0.0000
         2         0.0000      0.0000      0.0000      0.0000      0.0000
 Ground to excited state transition magnetic dipole moments (Au):
       state          X           Y           Z
         1         0.0000      0.0000      0.0000
         2         0.0000      0.0000      0.0000
 <0|del|b> * <b|rxdel|0> + <0|del|b> * <b|delr+rdel|0>
 Rotatory Strengths (R) in cgs (10**-40 erg-esu-cm/Gauss)
       state          XX          YY          ZZ    R(velocity)
         1         0.0000      0.0000      0.0000      0.0000
 Total R(velocity) tensor for State=          1
                 1             2             3 
      1   0.000000D+00  0.000000D+00  0.000000D+00
      2   0.000000D+00  0.000000D+00  0.000000D+00
      3   0.000000D+00  0.000000D+00  0.000000D+00
         2         0.0000      0.0000      0.0000      0.0000
 Total R(velocity) tensor for State=          2
                 1             2             3 
      1   0.000000D+00  0.000000D+00  0.000000D+00
      2   0.000000D+00  0.000000D+00  0.000000D+00
      3   0.000000D+00  0.000000D+00  0.000000D+00
 1/2[<0|r|b>*<b|rxdel|0> + (<0|rxdel|b>*<b|r|0>)*]
 Rotatory Strengths (R) in cgs (10**-40 erg-esu-cm/Gauss)
       state          XX          YY          ZZ     R(length)     R(au)
         1         0.0000      0.0000      0.0000      0.0000      0.0000
         2         0.0000      0.0000      0.0000      0.0000      0.0000
  1/2[<0|del|b>*<b|r|0> + (<0|r|b>*<b|del|0>)*] (Au)
       state          X           Y           Z        Dip. S.   Osc.(frdel)
         1         0.0000      0.0000      0.0000      0.0000      0.0000
         2         0.0000      0.0000      0.0000      0.0000      0.0000
 Ground to excited state transition densities written to RWF  633

 Excitation energies and oscillator strengths:
 
 Excited state symmetry could not be determined.
 Excited State   1:      Singlet-?Sym    0.9202 eV 1347.32 nm  f=0.0000  <S**2>=0.000
       3 -> 12         0.00000
       3 -> 23         0.00000
       4 -> 12         0.00000
       4 -> 23         0.00000
       4 -> 25         0.00000
       5 -> 12         0.00000
       5 -> 23         0.00000
       5 -> 25         0.00000
       6 ->  9         0.00000
       6 -> 12         0.00000
       6 -> 23         0.00000
       6 -> 25         0.00000
       7 ->  9         0.00000
       7 -> 10         0.00000
       7 -> 12         0.00000
       7 -> 23         0.00000
       7 -> 25         0.00000
       8 ->  9         0.70710
       8 -> 10         0.00000
       8 -> 11        -0.00005
       8 -> 12         0.00000
       8 -> 13        -0.00199
       8 -> 14         0.00001
       8 -> 15         0.00000
       8 -> 16         0.00000
       8 -> 17         0.00008
       8 -> 18        -0.00001
       8 -> 19         0.00001
       8 -> 20         0.00000
       8 -> 21        -0.00020
       8 -> 22        -0.00002
       8 -> 24        -0.00063
       8 -> 26         0.00000
       8 -> 27         0.00000
       8 -> 28         0.00004
       8 -> 29        -0.00001
       8 -> 30         0.00013
       8 -> 31         0.00004
       8 -> 32         0.00000
       8 -> 33        -0.00002
       8 -> 34        -0.00006
       8 -> 35         0.00000
       8 -> 36         0.00000
       8 -> 37         0.00000
       8 -> 38         0.00000
       3 <- 12         0.00001
       3 <- 23         0.00000
       4 <- 12        -0.00005
       4 <- 23         0.00000
       4 <- 25         0.00000
       5 <- 12        -0.00001
       5 <- 23         0.00000
       5 <- 25         0.00000
       6 <-  9         0.00000
       6 <- 12         0.00000
       6 <- 23         0.00000
       6 <- 25         0.00000
       7 <-  9         0.00000
       7 <- 10         0.00000
       7 <- 12         0.00007
       7 <- 23         0.00000
       7 <- 25         0.00000
       8 <-  9         0.00000
       8 <- 10         0.00000
       8 <- 11         0.00000
       8 <- 12         0.00000
       8 <- 13         0.00000
       8 <- 14         0.00000
       8 <- 15         0.00000
       8 <- 16         0.00000
       8 <- 17         0.00000
       8 <- 18         0.00000
       8 <- 19         0.00000
       8 <- 20         0.00000
       8 <- 21         0.00000
       8 <- 22         0.00000
       8 <- 24         0.00000
       8 <- 26         0.00000
       8 <- 27         0.00000
       8 <- 28         0.00000
       8 <- 29         0.00000
       8 <- 30         0.00000
       8 <- 31         0.00000
       8 <- 32         0.00000
       8 <- 33         0.00000
       8 <- 34         0.00000
       8 <- 35         0.00000
       8 <- 36         0.00000
       8 <- 37         0.00000
       8 <- 38         0.00000
 This state for optimization and/or second-order correction.
 Copying the excited state density for this state as the 1-particle RhoCI density.
 
 Excited state symmetry could not be determined.
 Excited State   2:      Singlet-?Sym    2.8601 eV  433.49 nm  f=0.0000  <S**2>=0.000
       3 -> 12         0.00000
       3 -> 23         0.00000
       4 -> 12         0.00000
       4 -> 23         0.00000
       4 -> 25         0.00000
       5 -> 12         0.00000
       5 -> 23         0.00000
       5 -> 25         0.00000
       6 ->  9         0.00000
       6 -> 12         0.00000
       6 -> 23         0.00000
       6 -> 25         0.00000
       7 ->  9         0.00000
       7 -> 10         0.00000
       7 -> 12         0.00000
       7 -> 23         0.00000
       7 -> 25         0.00000
       8 ->  9         0.00000
       8 -> 10         0.70711
       8 -> 11         0.00059
       8 -> 12         0.00000
       8 -> 13         0.00000
       8 -> 14         0.00004
       8 -> 15         0.00000
       8 -> 16         0.00034
       8 -> 17         0.00000
       8 -> 18        -0.00001
       8 -> 19         0.00002
       8 -> 20        -0.00014
       8 -> 21         0.00000
       8 -> 22        -0.00001
       8 -> 24         0.00000
       8 -> 26         0.00001
       8 -> 27         0.00059
       8 -> 28         0.00000
       8 -> 29         0.00001
       8 -> 30         0.00000
       8 -> 31        -0.00001
       8 -> 32         0.00000
       8 -> 33         0.00000
       8 -> 34         0.00000
       8 -> 35        -0.00004
       8 -> 36         0.00000
       8 -> 37         0.00000
       8 -> 38         0.00000
       3 <- 12         0.00000
       3 <- 23         0.00000
       4 <- 12        -0.00003
       4 <- 23         0.00000
       4 <- 25         0.00000
       5 <- 12         0.00000
       5 <- 23         0.00000
       5 <- 25         0.00000
       6 <-  9         0.00000
       6 <- 12         0.00000
       6 <- 23         0.00000
       6 <- 25         0.00000
       7 <-  9         0.00000
       7 <- 10         0.00000
       7 <- 12         0.00005
       7 <- 23         0.00000
       7 <- 25         0.00000
       8 <-  9         0.00000
       8 <- 10         0.00000
       8 <- 11         0.00000
       8 <- 12         0.00000
       8 <- 13         0.00000
       8 <- 14         0.00000
       8 <- 15         0.00000
       8 <- 16         0.00000
       8 <- 17         0.00000
       8 <- 18         0.00000
       8 <- 19         0.00000
       8 <- 20         0.00000
       8 <- 21         0.00000
       8 <- 22         0.00000
       8 <- 24         0.00000
       8 <- 26         0.00000
       8 <- 27         0.00000
       8 <- 28         0.00000
       8 <- 29         0.00000
       8 <- 30         0.00000
       8 <- 31         0.00000
       8 <- 32         0.00000
       8 <- 33         0.00000
       8 <- 34         0.00000
       8 <- 35         0.00000
       8 <- 36         0.00000
       8 <- 37         0.00000
       8 <- 38         0.00000
 SavETr:  write IOETrn=   770 NScale= 10 NData=  16 NLR=1 LETran=      46.
 FoFJK:  IHMeth= 1 ICntrl=     0 DoSepK=T KAlg= 1 I1Cent= 0 FoldK=F
 FoFJK:  IHMeth= 1 ICntrl=     0 DoSepK=T KAlg= 1 I1Cent= 0 FoldK=F
          IDoAtm=111111
          Differentiating once with respect to electric field.
                with respect to dipole field.
          Differentiating once with respect to nuclear coordinates.
          There are     1 degrees of freedom in the 1st order CPHF.  IDoFFX=0.
 FoFJK:  IHMeth= 1 ICntrl=     0 DoSepK=T KAlg= 1 I1Cent= 0 FoldK=F
 LinEq1:  Iter=  0 NonCon=     1 RMS=6.03D-02 Max=6.09D-01
 AX will form     1 AO Fock derivatives at one time.
 FoFJK:  IHMeth= 1 ICntrl=     0 DoSepK=T KAlg= 1 I1Cent= 0 FoldK=F
 LinEq1:  Iter=  1 NonCon=     1 RMS=2.79D-02 Max=1.93D-01
 FoFJK:  IHMeth= 1 ICntrl=     0 DoSepK=T KAlg= 1 I1Cent= 0 FoldK=F
 LinEq1:  Iter=  2 NonCon=     1 RMS=1.22D-02 Max=1.03D-01
 FoFJK:  IHMeth= 1 ICntrl=     0 DoSepK=T KAlg= 1 I1Cent= 0 FoldK=F
 LinEq1:  Iter=  3 NonCon=     1 RMS=1.89D-03 Max=1.41D-02
 FoFJK:  IHMeth= 1 ICntrl=     0 DoSepK=T KAlg= 1 I1Cent= 0 FoldK=F
 LinEq1:  Iter=  4 NonCon=     1 RMS=3.57D-04 Max=1.91D-03
 FoFJK:  IHMeth= 1 ICntrl=     0 DoSepK=T KAlg= 1 I1Cent= 0 FoldK=F
 LinEq1:  Iter=  5 NonCon=     1 RMS=3.81D-05 Max=3.20D-04
 FoFJK:  IHMeth= 1 ICntrl=     0 DoSepK=T KAlg= 1 I1Cent= 0 FoldK=F
 LinEq1:  Iter=  6 NonCon=     1 RMS=3.80D-06 Max=2.68D-05
 FoFJK:  IHMeth= 1 ICntrl=     0 DoSepK=T KAlg= 1 I1Cent= 0 FoldK=F
