 Entering Gaussian System, Link 0=g09
 Input=freq.gjf
 Output=freq.log
 Initial command:
 /opt/Gaussian/g09/l1.exe /tmp/dulikai/Gau-30321.inp -scrdir=/tmp/dulikai/
 Entering Link 1 = /opt/Gaussian/g09/l1.exe PID=     30322.
  
 Copyright (c) 1988,1990,1992,1993,1995,1998,2003,2009,2010,
            Gaussian, Inc.  All Rights Reserved.
  
 This is part of the Gaussian(R) 09 program.  It is based on
 the Gaussian(R) 03 system (copyright 2003, Gaussian, Inc.),
 the Gaussian(R) 98 system (copyright 1998, Gaussian, Inc.),
 the Gaussian(R) 94 system (copyright 1995, Gaussian, Inc.),
 the Gaussian 92(TM) system (copyright 1992, Gaussian, Inc.),
 the Gaussian 90(TM) system (copyright 1990, Gaussian, Inc.),
 the Gaussian 88(TM) system (copyright 1988, Gaussian, Inc.),
 the Gaussian 86(TM) system (copyright 1986, Carnegie Mellon
 University), and the Gaussian 82(TM) system (copyright 1983,
 Carnegie Mellon University). Gaussian is a federally registered
 trademark of Gaussian, Inc.
  
 This software contains proprietary and confidential information,
 including trade secrets, belonging to Gaussian, Inc.
  
 This software is provided under written license and may be
 used, copied, transmitted, or stored only in accord with that
 written license.
  
 The following legend is applicable only to US Government
 contracts under FAR:
  
                    RESTRICTED RIGHTS LEGEND
  
 Use, reproduction and disclosure by the US Government is
 subject to restrictions as set forth in subparagraphs (a)
 and (c) of the Commercial Computer Software - Restricted
 Rights clause in FAR 52.227-19.
  
 Gaussian, Inc.
 340 Quinnipiac St., Bldg. 40, Wallingford CT 06492
  
  
 ---------------------------------------------------------------
 Warning -- This program may not be used in any manner that
 competes with the business of Gaussian, Inc. or will provide
 assistance to any competitor of Gaussian, Inc.  The licensee
 of this program is prohibited from giving any competitor of
 Gaussian, Inc. access to this program.  By using this program,
 the user acknowledges that Gaussian, Inc. is engaged in the
 business of creating and licensing software in the field of
 computational chemistry and represents and warrants to the
 licensee that it is not a competitor of Gaussian, Inc. and that
 it will not use this program in any manner prohibited above.
 ---------------------------------------------------------------
  

 Cite this work as:
 Gaussian 09, Revision B.01,
 M. J. Frisch, G. W. Trucks, H. B. Schlegel, G. E. Scuseria, 
 M. A. Robb, J. R. Cheeseman, G. Scalmani, V. Barone, B. Mennucci, 
 G. A. Petersson, H. Nakatsuji, M. Caricato, X. Li, H. P. Hratchian, 
 A. F. Izmaylov, J. Bloino, G. Zheng, J. L. Sonnenberg, M. Hada, 
 M. Ehara, K. Toyota, R. Fukuda, J. Hasegawa, M. Ishida, T. Nakajima, 
 Y. Honda, O. Kitao, H. Nakai, T. Vreven, J. A. Montgomery, Jr., 
 J. E. Peralta, F. Ogliaro, M. Bearpark, J. J. Heyd, E. Brothers, 
 K. N. Kudin, V. N. Staroverov, T. Keith, R. Kobayashi, J. Normand, 
 K. Raghavachari, A. Rendell, J. C. Burant, S. S. Iyengar, J. Tomasi, 
 M. Cossi, N. Rega, J. M. Millam, M. Klene, J. E. Knox, J. B. Cross, 
 V. Bakken, C. Adamo, J. Jaramillo, R. Gomperts, R. E. Stratmann, 
 O. Yazyev, A. J. Austin, R. Cammi, C. Pomelli, J. W. Ochterski, 
 R. L. Martin, K. Morokuma, V. G. Zakrzewski, G. A. Voth, 
 P. Salvador, J. J. Dannenberg, S. Dapprich, A. D. Daniels, 
 O. Farkas, J. B. Foresman, J. V. Ortiz, J. Cioslowski, 
 and D. J. Fox, Gaussian, Inc., Wallingford CT, 2010.
 
 ******************************************
 Gaussian 09:  AM64L-G09RevB.01 12-Aug-2010
                11-Dec-2013 
 ******************************************
 %chk=pabn.chk
 %mem=8GB
 %nproc=8
 Will use up to    8 processors via shared memory.
 ------------------------------------------
 # opt freq=(hpmode) b3lyp/6-31G** pop=full
 ------------------------------------------
 1/14=-1,18=20,19=15,26=3,38=1/1,3;
 2/9=110,12=2,17=6,18=5,40=1/2;
 3/5=1,6=6,7=101,11=2,16=1,25=1,30=1,71=1,74=-5/1,2,3;
 4//1;
 5/5=2,38=5/2;
 6/7=3,28=1/1;
 7//1,2,3,16;
 1/14=-1,18=20,19=15/3(2);
 2/9=110/2;
 99//99;
 2/9=110/2;
 3/5=1,6=6,7=101,11=2,16=1,25=1,30=1,71=1,74=-5/1,2,3;
 4/5=5,16=3/1;
 5/5=2,38=5/2;
 7//1,2,3,16;
 1/14=-1,18=20,19=15/3(-5);
 2/9=110/2;
 6/7=3,19=2,28=1/1;
 99/9=1/99;
 -------------------
 Title Card Required
 -------------------
 Symbolic Z-matrix:
 Charge =  0 Multiplicity = 1
 C                    -0.3178    1.37712   0. 
 C                     1.07736   1.37712   0. 
 C                     1.7749    2.58487   0. 
 C                     1.07725   3.79338  -0.0012 
 C                    -0.31758   3.7933   -0.00168 
 C                    -1.01518   2.58509  -0.00068 
 H                    -0.86756   0.4248    0.00045 
 H                     2.87458   2.58495   0.00063 
 H                     1.62745   4.74552  -0.00126 
 H                    -2.11478   2.58528  -0.00086 
 C                     1.84692   0.04318   0.00184 
 N                     2.42658  -0.9616    0.00323 
 N                    -1.0529    5.06617  -0.00295 
 H                    -0.81189   5.59118   0.81331 
 H                    -0.81102   5.59004  -0.81968 
 

 GradGradGradGradGradGradGradGradGradGradGradGradGradGradGradGradGradGrad
 Berny optimization.
 Initialization pass.
                           ----------------------------
                           !    Initial Parameters    !
                           ! (Angstroms and Degrees)  !
 --------------------------                            --------------------------
 ! Name  Definition              Value          Derivative Info.                !
 --------------------------------------------------------------------------------
 ! R1    R(1,2)                  1.3952         estimate D2E/DX2                !
 ! R2    R(1,6)                  1.3948         estimate D2E/DX2                !
 ! R3    R(1,7)                  1.0996         estimate D2E/DX2                !
 ! R4    R(2,3)                  1.3947         estimate D2E/DX2                !
 ! R5    R(2,11)                 1.54           estimate D2E/DX2                !
 ! R6    R(3,4)                  1.3954         estimate D2E/DX2                !
 ! R7    R(3,8)                  1.0997         estimate D2E/DX2                !
 ! R8    R(4,5)                  1.3948         estimate D2E/DX2                !
 ! R9    R(4,9)                  1.0997         estimate D2E/DX2                !
 ! R10   R(5,6)                  1.3951         estimate D2E/DX2                !
 ! R11   R(5,13)                 1.47           estimate D2E/DX2                !
 ! R12   R(6,10)                 1.0996         estimate D2E/DX2                !
 ! R13   R(11,12)                1.16           estimate D2E/DX2                !
 ! R14   R(13,14)                1.0            estimate D2E/DX2                !
 ! R15   R(13,15)                1.0            estimate D2E/DX2                !
 ! A1    A(2,1,6)              119.9985         estimate D2E/DX2                !
 ! A2    A(2,1,7)              119.9972         estimate D2E/DX2                !
 ! A3    A(6,1,7)              120.0043         estimate D2E/DX2                !
 ! A4    A(1,2,3)              120.0086         estimate D2E/DX2                !
 ! A5    A(1,2,11)             119.9808         estimate D2E/DX2                !
 ! A6    A(3,2,11)             120.0106         estimate D2E/DX2                !
 ! A7    A(2,3,4)              119.9942         estimate D2E/DX2                !
 ! A8    A(2,3,8)              120.0128         estimate D2E/DX2                !
 ! A9    A(4,3,8)              119.993          estimate D2E/DX2                !
 ! A10   A(3,4,5)              119.994          estimate D2E/DX2                !
 ! A11   A(3,4,9)              119.9811         estimate D2E/DX2                !
 ! A12   A(5,4,9)              120.0249         estimate D2E/DX2                !
 ! A13   A(4,5,6)              120.0047         estimate D2E/DX2                !
 ! A14   A(4,5,13)             120.0113         estimate D2E/DX2                !
 ! A15   A(6,5,13)             119.984          estimate D2E/DX2                !
 ! A16   A(1,6,5)              120.0            estimate D2E/DX2                !
 ! A17   A(1,6,10)             120.008          estimate D2E/DX2                !
 ! A18   A(5,6,10)             119.992          estimate D2E/DX2                !
 ! A19   A(5,13,14)            109.4712         estimate D2E/DX2                !
 ! A20   A(5,13,15)            109.4712         estimate D2E/DX2                !
 ! A21   A(14,13,15)           109.4713         estimate D2E/DX2                !
 ! A22   L(2,11,12,1,-1)       180.0            estimate D2E/DX2                !
 ! A23   L(2,11,12,1,-2)       180.0            estimate D2E/DX2                !
 ! D1    D(6,1,2,3)              0.0323         estimate D2E/DX2                !
 ! D2    D(6,1,2,11)           179.9532         estimate D2E/DX2                !
 ! D3    D(7,1,2,3)           -179.9729         estimate D2E/DX2                !
 ! D4    D(7,1,2,11)            -0.052          estimate D2E/DX2                !
 ! D5    D(2,1,6,5)              0.0149         estimate D2E/DX2                !
 ! D6    D(2,1,6,10)           179.9892         estimate D2E/DX2                !
 ! D7    D(7,1,6,5)           -179.9798         estimate D2E/DX2                !
 ! D8    D(7,1,6,10)            -0.0056         estimate D2E/DX2                !
 ! D9    D(1,2,3,4)             -0.0568         estimate D2E/DX2                !
 ! D10   D(1,2,3,8)            179.9619         estimate D2E/DX2                !
 ! D11   D(11,2,3,4)          -179.9777         estimate D2E/DX2                !
 ! D12   D(11,2,3,8)             0.041          estimate D2E/DX2                !
 ! D13   D(2,3,4,5)              0.0341         estimate D2E/DX2                !
 ! D14   D(2,3,4,9)           -179.9964         estimate D2E/DX2                !
 ! D15   D(8,3,4,5)           -179.9846         estimate D2E/DX2                !
 ! D16   D(8,3,4,9)             -0.0151         estimate D2E/DX2                !
 ! D17   D(3,4,5,6)              0.0131         estimate D2E/DX2                !
 ! D18   D(3,4,5,13)          -179.9995         estimate D2E/DX2                !
 ! D19   D(9,4,5,6)           -179.9563         estimate D2E/DX2                !
 ! D20   D(9,4,5,13)             0.0311         estimate D2E/DX2                !
 ! D21   D(4,5,6,1)             -0.0376         estimate D2E/DX2                !
 ! D22   D(4,5,6,10)           179.9881         estimate D2E/DX2                !
 ! D23   D(13,5,6,1)           179.975          estimate D2E/DX2                !
 ! D24   D(13,5,6,10)            0.0007         estimate D2E/DX2                !
 ! D25   D(4,5,13,14)          -60.0125         estimate D2E/DX2                !
 ! D26   D(4,5,13,15)           59.9875         estimate D2E/DX2                !
 ! D27   D(6,5,13,14)          119.9749         estimate D2E/DX2                !
 ! D28   D(6,5,13,15)         -120.0251         estimate D2E/DX2                !
 --------------------------------------------------------------------------------
 Trust Radius=3.00D-01 FncErr=1.00D-07 GrdErr=1.00D-06
 Number of steps in this run=     76 maximum allowed number of steps=    100.
 GradGradGradGradGradGradGradGradGradGradGradGradGradGradGradGradGradGrad

                          Input orientation:                          
 ---------------------------------------------------------------------
 Center     Atomic      Atomic             Coordinates (Angstroms)
 Number     Number       Type             X           Y           Z
 ---------------------------------------------------------------------
      1          6           0       -0.317797    1.377119    0.000000
      2          6           0        1.077363    1.377119    0.000000
      3          6           0        1.774901    2.584870    0.000000
      4          6           0        1.077247    3.793379   -0.001199
      5          6           0       -0.317578    3.793301   -0.001678
      6          6           0       -1.015179    2.585095   -0.000682
      7          1           0       -0.867556    0.424802    0.000450
      8          1           0        2.874581    2.584950    0.000634
      9          1           0        1.627447    4.745522   -0.001258
     10          1           0       -2.114783    2.585278   -0.000862
     11          6           0        1.846916    0.043182    0.001842
     12          7           0        2.426579   -0.961601    0.003229
     13          7           0       -1.052900    5.066171   -0.002952
     14          1           0       -0.811886    5.591175    0.813309
     15          1           0       -0.811017    5.590043   -0.819683
 ---------------------------------------------------------------------
                    Distance matrix (angstroms):
                    1          2          3          4          5
     1  C    0.000000
     2  C    1.395160   0.000000
     3  C    2.416205   1.394712   0.000000
     4  C    2.790065   2.416260   1.395427   0.000000
     5  C    2.416183   2.789946   2.416356   1.394825   0.000000
     6  C    1.394829   2.416183   2.790080   2.416236   1.395138
     7  H    1.099610   2.165553   3.412986   3.889675   3.413102
     8  H    3.413229   2.165375   1.099680   2.165806   3.413209
     9  H    3.889745   3.413024   2.165678   1.099680   2.165606
    10  H    2.165365   3.413128   3.889684   3.412999   2.165471
    11  C    2.542709   1.540000   2.542708   3.828364   4.329946
    12  N    3.605720   2.700000   3.605849   4.942726   5.489946
    13  N    3.761581   4.259946   3.762091   2.481438   1.470000
    14  H    4.320170   4.689244   4.048557   2.732091   2.034920
    15  H    4.320171   4.688987   4.048447   2.731934   2.034920
                    6          7          8          9         10
     6  C    0.000000
     7  H    2.165331   0.000000
     8  H    3.889760   4.320860   0.000000
     9  H    3.413344   4.989355   2.494678   0.000000
    10  H    1.099604   2.494641   4.989364   4.320988   0.000000
    11  C    3.827912   2.741166   2.741656   4.707459   4.707155
    12  N    4.942141   3.573995   3.574735   5.762801   5.762319
    13  N    2.481364   4.645070   4.645598   2.699460   2.698598
    14  H    3.120966   5.230225   4.825752   2.707212   3.375772
    15  H    3.121243   5.230252   4.825676   2.707240   3.376224
                   11         12         13         14         15
    11  C    0.000000
    12  N    1.160000   0.000000
    13  N    5.799946   6.959946   0.000000
    14  H    6.205476   7.354098   1.000000   0.000000
    15  H    6.205415   7.354131   1.000000   1.632993   0.000000
 Stoichiometry    C7H6N2
 Framework group  C1[X(C7H6N2)]
 Deg. of freedom    39
 Full point group                 C1      NOp   1
 Largest Abelian subgroup         C1      NOp   1
 Largest concise Abelian subgroup C1      NOp   1
                         Standard orientation:                         
 ---------------------------------------------------------------------
 Center     Atomic      Atomic             Coordinates (Angstroms)
 Number     Number       Type             X           Y           Z
 ---------------------------------------------------------------------
      1          6           0        0.395520    1.217546   -0.000254
      2          6           0        1.075334   -0.000783   -0.000254
      3          6           0        0.360548   -1.198406   -0.000254
      4          6           0       -1.034730   -1.178043    0.000945
      5          6           0       -1.714313    0.040031    0.001424
      6          6           0       -0.999160    1.237931    0.000428
      7          1           0        0.959255    2.161657   -0.000704
      8          1           0        0.896315   -2.158745   -0.000888
      9          1           0       -1.598099   -2.122454    0.001004
     10          1           0       -1.535120    2.198075    0.000608
     11          6           0        2.615175   -0.022815   -0.002096
     12          7           0        3.775056   -0.039411   -0.003483
     13          7           0       -3.184149    0.061928    0.002697
     14          1           0       -3.525173   -0.404356   -0.813564
     15          1           0       -3.523761   -0.404563    0.819429
 ---------------------------------------------------------------------
 Rotational constants (GHZ):      5.5762381      0.9472526      0.8132071
 Standard basis: 6-31G(d,p) (6D, 7F)
 There are   165 symmetry adapted basis functions of A   symmetry.
 Integral buffers will be    131072 words long.
 Raffenetti 2 integral format.
 Two-electron integral symmetry is turned on.
   165 basis functions,   294 primitive gaussians,   165 cartesian basis functions
    31 alpha electrons       31 beta electrons
       nuclear repulsion energy       370.8109153707 Hartrees.
 NAtoms=   15 NActive=   15 NUniq=   15 SFac= 1.00D+00 NAtFMM=   50 NAOKFM=F Big=F
 One-electron integrals computed using PRISM.
 NBasis=   165 RedAO= T  NBF=   165
 NBsUse=   165 1.00D-06 NBFU=   165
 Harris functional with IExCor=  402 diagonalized for initial guess.
 ExpMin= 1.61D-01 ExpMax= 4.17D+03 ExpMxC= 6.27D+02 IAcc=1 IRadAn=         1 AccDes= 0.00D+00
 HarFok:  IExCor=  402 AccDes= 0.00D+00 IRadAn=         1 IDoV= 1
 ScaDFX=  1.000000  1.000000  1.000000  1.000000
 FoFCou: FMM=F IPFlag=           0 FMFlag=      100000 FMFlg1=           0
         NFxFlg=           0 DoJE=T BraDBF=F KetDBF=T FulRan=T
         Omega=  0.000000  0.000000  1.000000  0.000000  0.000000 ICntrl=     500 IOpCl=  0
         NMat0=    1 NMatS0=    1 NMatT0=    0 NMatD0=    1 NMtDS0=    0 NMtDT0=    0
         I1Cent=           4 NGrid=           0.
 Petite list used in FoFCou.
 Initial guess orbital symmetries:
       Occupied  (A) (A) (A) (A) (A) (A) (A) (A) (A) (A) (A) (A)
                 (A) (A) (A) (A) (A) (A) (A) (A) (A) (A) (A) (A)
                 (A) (A) (A) (A) (A) (A) (A)
       Virtual   (A) (A) (A) (A) (A) (A) (A) (A) (A) (A) (A) (A)
                 (A) (A) (A) (A) (A) (A) (A) (A) (A) (A) (A) (A)
                 (A) (A) (A) (A) (A) (A) (A) (A) (A) (A) (A) (A)
                 (A) (A) (A) (A) (A) (A) (A) (A) (A) (A) (A) (A)
                 (A) (A) (A) (A) (A) (A) (A) (A) (A) (A) (A) (A)
                 (A) (A) (A) (A) (A) (A) (A) (A) (A) (A) (A) (A)
                 (A) (A) (A) (A) (A) (A) (A) (A) (A) (A) (A) (A)
                 (A) (A) (A) (A) (A) (A) (A) (A) (A) (A) (A) (A)
                 (A) (A) (A) (A) (A) (A) (A) (A) (A) (A) (A) (A)
                 (A) (A) (A) (A) (A) (A) (A) (A) (A) (A) (A) (A)
                 (A) (A) (A) (A) (A) (A) (A) (A) (A) (A) (A) (A)
                 (A) (A)
 The electronic state of the initial guess is 1-A.
 Requested convergence on RMS density matrix=1.00D-08 within 128 cycles.
 Requested convergence on MAX density matrix=1.00D-06.
 Requested convergence on             energy=1.00D-06.
 No special actions if energy rises.
 Keep R1 ints in memory in canonical form, NReq=96298058.
 Integral accuracy reduced to 1.0D-05 until final iterations.
 Initial convergence to 1.0D-05 achieved.  Increase integral accuracy.
 SCF Done:  E(RB3LYP) =  -379.841328422     A.U. after   15 cycles
             Convg  =    0.5296D-08             -V/T =  2.0102

 **********************************************************************

            Population analysis using the SCF density.

 **********************************************************************

 Orbital symmetries:
       Occupied  (A) (A) (A) (A) (A) (A) (A) (A) (A) (A) (A) (A)
                 (A) (A) (A) (A) (A) (A) (A) (A) (A) (A) (A) (A)
                 (A) (A) (A) (A) (A) (A) (A)
       Virtual   (A) (A) (A) (A) (A) (A) (A) (A) (A) (A) (A) (A)
                 (A) (A) (A) (A) (A) (A) (A) (A) (A) (A) (A) (A)
                 (A) (A) (A) (A) (A) (A) (A) (A) (A) (A) (A) (A)
                 (A) (A) (A) (A) (A) (A) (A) (A) (A) (A) (A) (A)
                 (A) (A) (A) (A) (A) (A) (A) (A) (A) (A) (A) (A)
                 (A) (A) (A) (A) (A) (A) (A) (A) (A) (A) (A) (A)
                 (A) (A) (A) (A) (A) (A) (A) (A) (A) (A) (A) (A)
                 (A) (A) (A) (A) (A) (A) (A) (A) (A) (A) (A) (A)
                 (A) (A) (A) (A) (A) (A) (A) (A) (A) (A) (A) (A)
                 (A) (A) (A) (A) (A) (A) (A) (A) (A) (A) (A) (A)
                 (A) (A) (A) (A) (A) (A) (A) (A) (A) (A) (A) (A)
                 (A) (A)
 The electronic state is 1-A.
 Alpha  occ. eigenvalues --  -14.33587 -14.33430 -10.25054 -10.24501 -10.23368
 Alpha  occ. eigenvalues --  -10.22258 -10.22149 -10.21430 -10.21163  -0.91645
 Alpha  occ. eigenvalues --   -0.90248  -0.86343  -0.77044  -0.75982  -0.63325
 Alpha  occ. eigenvalues --   -0.62789  -0.55872  -0.50603  -0.50114  -0.48271
 Alpha  occ. eigenvalues --   -0.45774  -0.44264  -0.39869  -0.39845  -0.37523
 Alpha  occ. eigenvalues --   -0.35595  -0.34318  -0.33356  -0.27605  -0.26734
 Alpha  occ. eigenvalues --   -0.26389
 Alpha virt. eigenvalues --   -0.04438  -0.02635   0.03823   0.06698   0.07165
 Alpha virt. eigenvalues --    0.07889   0.12404   0.13620   0.14164   0.17589
 Alpha virt. eigenvalues --    0.17711   0.18197   0.22526   0.28016   0.29987
 Alpha virt. eigenvalues --    0.30813   0.33783   0.38287   0.46795   0.49487
 Alpha virt. eigenvalues --    0.51351   0.52617   0.53270   0.54095   0.56624
 Alpha virt. eigenvalues --    0.57489   0.59332   0.59658   0.59983   0.62389
 Alpha virt. eigenvalues --    0.63965   0.64083   0.67115   0.69165   0.70583
 Alpha virt. eigenvalues --    0.70877   0.75293   0.75672   0.79233   0.79748
 Alpha virt. eigenvalues --    0.80855   0.82358   0.82954   0.84613   0.87030
 Alpha virt. eigenvalues --    0.87624   0.88141   0.89842   0.91855   0.98289
 Alpha virt. eigenvalues --    1.01003   1.05608   1.09807   1.14249   1.16476
 Alpha virt. eigenvalues --    1.17118   1.20022   1.22302   1.29338   1.33456
 Alpha virt. eigenvalues --    1.37330   1.37886   1.39197   1.39413   1.40597
 Alpha virt. eigenvalues --    1.42018   1.52940   1.54508   1.59198   1.73429
 Alpha virt. eigenvalues --    1.74015   1.74887   1.75827   1.76019   1.79845
 Alpha virt. eigenvalues --    1.83970   1.85901   1.88460   1.92123   1.94315
 Alpha virt. eigenvalues --    1.96126   1.96582   1.97686   1.99654   2.02147
 Alpha virt. eigenvalues --    2.05393   2.06590   2.09269   2.18977   2.20381
 Alpha virt. eigenvalues --    2.24568   2.27669   2.27786   2.34957   2.36192
 Alpha virt. eigenvalues --    2.38743   2.39461   2.42591   2.43849   2.44702
 Alpha virt. eigenvalues --    2.46858   2.52998   2.56077   2.57053   2.58181
 Alpha virt. eigenvalues --    2.63656   2.66563   2.72551   2.75032   2.78265
 Alpha virt. eigenvalues --    2.79741   2.82070   2.85193   2.91119   3.01083
 Alpha virt. eigenvalues --    3.04866   3.17162   3.18787   3.19485   3.27857
 Alpha virt. eigenvalues --    3.30838   3.34166   3.44131   3.46222   3.77264
 Alpha virt. eigenvalues --    3.99478   4.06328   4.12076   4.13451   4.17579
 Alpha virt. eigenvalues --    4.28693   4.40891   4.52348   4.83433
     Molecular Orbital Coefficients:
                           1         2         3         4         5
                           O         O         O         O         O
     Eigenvalues --   -14.33587 -14.33430 -10.25054 -10.24501 -10.23368
   1 1   C  1S          0.00000   0.00001   0.00916   0.00016  -0.00025
   2        2S          0.00002   0.00004  -0.00011   0.00017  -0.00015
   3        2PX         0.00001   0.00001  -0.00014   0.00005  -0.00017
   4        2PY         0.00000   0.00001   0.00029   0.00000   0.00002
   5        2PZ         0.00000   0.00000   0.00000   0.00000   0.00000
   6        3S          0.00014  -0.00080   0.00720  -0.00551  -0.00086
   7        3PX        -0.00010   0.00056   0.00003   0.00171   0.00122
   8        3PY        -0.00005  -0.00001  -0.00314   0.00284  -0.00099
   9        3PZ         0.00000   0.00000   0.00000   0.00000   0.00000
  10        4XX         0.00001   0.00000  -0.00037   0.00009  -0.00012
  11        4YY        -0.00004   0.00000  -0.00047   0.00000   0.00021
  12        4ZZ         0.00001   0.00001  -0.00026   0.00005  -0.00011
  13        4XY        -0.00002  -0.00001   0.00008   0.00002   0.00004
  14        4XZ         0.00000   0.00000   0.00000   0.00000   0.00000
  15        4YZ         0.00000   0.00000   0.00000   0.00000   0.00000
  16 2   C  1S          0.00002   0.00000   0.99280   0.00056  -0.00577
  17        2S         -0.00015  -0.00001   0.04936  -0.00023  -0.00060
  18        2PX         0.00014   0.00001   0.00042   0.00009  -0.00046
  19        2PY         0.00000   0.00001  -0.00002   0.00000   0.00001
  20        2PZ         0.00000   0.00000   0.00000   0.00000   0.00000
  21        3S         -0.00093   0.00014  -0.01990   0.00440   0.00936
  22        3PX        -0.00021  -0.00022   0.00079  -0.00385   0.00752
  23        3PY         0.00000  -0.00024   0.00001   0.00006  -0.00010
  24        3PZ         0.00000   0.00000   0.00001   0.00000  -0.00001
  25        4XX         0.00041   0.00000  -0.00911  -0.00004  -0.00072
  26        4YY         0.00004   0.00000  -0.00891   0.00004  -0.00029
  27        4ZZ         0.00006   0.00000  -0.00927  -0.00010  -0.00026
  28        4XY        -0.00001   0.00000   0.00000   0.00000   0.00001
  29        4XZ         0.00000   0.00000   0.00000   0.00000   0.00000
  30        4YZ         0.00000   0.00000   0.00000   0.00000   0.00000
  31 3   C  1S          0.00000   0.00000   0.00955   0.00016  -0.00027
  32        2S          0.00002  -0.00002  -0.00009   0.00017  -0.00015
  33        2PX         0.00001   0.00000  -0.00015   0.00005  -0.00017
  34        2PY         0.00000  -0.00001  -0.00028  -0.00001  -0.00001
  35        2PZ         0.00000   0.00000   0.00000   0.00000   0.00000
  36        3S          0.00014  -0.00011   0.00721  -0.00544  -0.00087
  37        3PX        -0.00010  -0.00023   0.00014   0.00159   0.00126
  38        3PY         0.00005  -0.00020   0.00315  -0.00286   0.00095
  39        3PZ         0.00000   0.00000   0.00000   0.00000   0.00000
  40        4XX         0.00001   0.00003  -0.00038   0.00009  -0.00012
  41        4YY        -0.00004  -0.00001  -0.00047   0.00000   0.00021
  42        4ZZ         0.00001  -0.00001  -0.00026   0.00005  -0.00011
  43        4XY         0.00002   0.00001  -0.00008  -0.00002  -0.00003
  44        4XZ         0.00000   0.00000   0.00000   0.00000   0.00000
  45        4YZ         0.00000   0.00000   0.00000   0.00000   0.00000
  46 4   C  1S          0.00000  -0.00001   0.00011   0.00868  -0.00011
  47        2S          0.00000   0.00003   0.00013  -0.00029  -0.00030
  48        2PX         0.00000   0.00004   0.00001   0.00013  -0.00003
  49        2PY         0.00000  -0.00002   0.00002  -0.00028  -0.00002
  50        2PZ         0.00000   0.00000   0.00000   0.00000   0.00000
  51        3S         -0.00015   0.00018  -0.00339   0.01005   0.00256
  52        3PX        -0.00008  -0.00015  -0.00108   0.00132   0.00149
  53        3PY        -0.00003   0.00038  -0.00201   0.00518   0.00072
  54        3PZ         0.00000   0.00000   0.00000   0.00000   0.00000
  55        4XX         0.00000  -0.00009   0.00009  -0.00043   0.00006
  56        4YY         0.00000  -0.00001   0.00002  -0.00040  -0.00002
  57        4ZZ         0.00000  -0.00002   0.00006  -0.00033  -0.00013
  58        4XY         0.00001   0.00003   0.00002   0.00011  -0.00001
  59        4XZ         0.00000   0.00000   0.00000   0.00000   0.00000
  60        4YZ         0.00000   0.00000   0.00000   0.00000   0.00000
  61 5   C  1S          0.00000   0.00000  -0.00065   0.99283   0.00000
  62        2S          0.00000   0.00013  -0.00024   0.04928   0.00004
  63        2PX         0.00000  -0.00023  -0.00002  -0.00013  -0.00002
  64        2PY         0.00000   0.00002   0.00000  -0.00003   0.00000
  65        2PZ         0.00000   0.00000   0.00000   0.00000   0.00000
  66        3S          0.00006  -0.00021   0.00345  -0.01976  -0.00126
  67        3PX         0.00004  -0.00068   0.00231  -0.00676  -0.00081
  68        3PY         0.00000   0.00016  -0.00005   0.00005   0.00001
  69        3PZ         0.00000   0.00000   0.00000   0.00001   0.00000
  70        4XX         0.00000   0.00013  -0.00001  -0.00897  -0.00004
  71        4YY         0.00000   0.00002   0.00002  -0.00900   0.00000
  72        4ZZ         0.00000  -0.00004  -0.00006  -0.00931  -0.00002
  73        4XY         0.00000  -0.00002   0.00000   0.00002   0.00000
  74        4XZ         0.00000   0.00000   0.00000   0.00000   0.00000
  75        4YZ         0.00000   0.00000   0.00000   0.00000   0.00000
  76 6   C  1S          0.00000  -0.00001   0.00010   0.00793  -0.00010
  77        2S          0.00000   0.00001   0.00013  -0.00033  -0.00030
  78        2PX         0.00000  -0.00004   0.00001   0.00013  -0.00003
  79        2PY         0.00000   0.00000  -0.00002   0.00028   0.00002
  80        2PZ         0.00000   0.00000   0.00000   0.00000   0.00000
  81        3S         -0.00015   0.00076  -0.00338   0.01016   0.00255
  82        3PX        -0.00007   0.00088  -0.00104   0.00122   0.00145
  83        3PY         0.00004  -0.00014   0.00203  -0.00529  -0.00076
  84        3PZ         0.00000   0.00000   0.00000   0.00000   0.00000
  85        4XX         0.00000  -0.00005   0.00009  -0.00042   0.00006
  86        4YY         0.00001  -0.00001   0.00002  -0.00040  -0.00002
  87        4ZZ         0.00000  -0.00001   0.00006  -0.00032  -0.00013
  88        4XY        -0.00001  -0.00004  -0.00002  -0.00011   0.00001
  89        4XZ         0.00000   0.00000   0.00000   0.00000   0.00000
  90        4YZ         0.00000   0.00000   0.00000   0.00000   0.00000
  91 7   H  1S          0.00001   0.00001   0.00000  -0.00009  -0.00011
  92        2S          0.00004  -0.00003   0.00032  -0.00068   0.00047
  93        3PX        -0.00001  -0.00002  -0.00004  -0.00003  -0.00006
  94        3PY        -0.00001   0.00000  -0.00005   0.00000   0.00005
  95        3PZ         0.00000   0.00000   0.00000   0.00000   0.00000
  96 8   H  1S          0.00001   0.00000   0.00000  -0.00009  -0.00011
  97        2S          0.00004  -0.00001   0.00032  -0.00066   0.00047
  98        3PX        -0.00001   0.00001  -0.00003  -0.00003  -0.00006
  99        3PY         0.00001   0.00001   0.00005   0.00001  -0.00005
 100        3PZ         0.00000   0.00000   0.00000   0.00000   0.00000
 101 9   H  1S          0.00000  -0.00001  -0.00008   0.00009   0.00001
 102        2S         -0.00002   0.00014  -0.00050   0.00112   0.00042
 103        3PX         0.00000   0.00002   0.00002   0.00004  -0.00003
 104        3PY         0.00000  -0.00001  -0.00001   0.00004   0.00003
 105        3PZ         0.00000   0.00000   0.00000   0.00000   0.00000
 106 10  H  1S          0.00000   0.00006  -0.00009   0.00009   0.00001
 107        2S         -0.00002   0.00006  -0.00050   0.00118   0.00042
 108        3PX         0.00000  -0.00003   0.00002   0.00004  -0.00003
 109        3PY         0.00000   0.00000   0.00001  -0.00005  -0.00003
 110        3PZ         0.00000   0.00000   0.00000   0.00000   0.00000
 111 11  C  1S          0.00006   0.00000   0.00545   0.00000   0.99269
 112        2S          0.00017   0.00000   0.00022  -0.00004   0.04976
 113        2PX        -0.00073   0.00000   0.00017  -0.00002  -0.00012
 114        2PY         0.00001   0.00001   0.00000   0.00000   0.00000
 115        2PZ         0.00000   0.00000   0.00000   0.00000   0.00000
 116        3S         -0.00204   0.00005   0.00365   0.00111  -0.00586
 117        3PX        -0.00210  -0.00010  -0.00283  -0.00113   0.01512
 118        3PY         0.00003  -0.00002   0.00004   0.00001  -0.00022
 119        3PZ         0.00000   0.00000   0.00000   0.00000  -0.00002
 120        4XX        -0.00153   0.00000  -0.00094   0.00003  -0.00836
 121        4YY         0.00005   0.00000  -0.00030  -0.00001  -0.01005
 122        4ZZ         0.00005   0.00000  -0.00017  -0.00001  -0.01000
 123        4XY         0.00003   0.00000   0.00001   0.00000  -0.00003
 124        4XZ         0.00000   0.00000   0.00000   0.00000   0.00000
 125        4YZ         0.00000   0.00000   0.00000   0.00000   0.00000
 126 12  N  1S          0.99278   0.00000   0.00003  -0.00001  -0.00041
 127        2S          0.03453  -0.00001   0.00020  -0.00004   0.00067
 128        2PX        -0.00221   0.00000  -0.00025   0.00001   0.00027
 129        2PY         0.00003   0.00000   0.00000   0.00000   0.00000
 130        2PZ         0.00000   0.00000   0.00000   0.00000   0.00000
 131        3S          0.00623   0.00008   0.00062   0.00061  -0.01363
 132        3PX        -0.00103  -0.00002   0.00006  -0.00013   0.00477
 133        3PY         0.00001   0.00001   0.00000   0.00000  -0.00007
 134        3PZ         0.00000   0.00000   0.00000   0.00000  -0.00001
 135        4XX        -0.00703   0.00000   0.00017  -0.00003   0.00031
 136        4YY        -0.00834   0.00000   0.00003  -0.00002   0.00040
 137        4ZZ        -0.00834   0.00000   0.00002  -0.00002   0.00040
 138        4XY        -0.00002   0.00000   0.00000   0.00000   0.00000
 139        4XZ         0.00000   0.00000   0.00000   0.00000   0.00000
 140        4YZ         0.00000   0.00000   0.00000   0.00000   0.00000
 141 13  N  1S          0.00000   0.99272  -0.00001  -0.00001  -0.00003
 142        2S          0.00000   0.03477  -0.00004   0.00033  -0.00008
 143        2PX         0.00000   0.00031   0.00000  -0.00020  -0.00003
 144        2PY         0.00000  -0.00123   0.00000   0.00000   0.00001
 145        2PZ         0.00000   0.00000   0.00000   0.00000   0.00000
 146        3S          0.00000   0.00332   0.00065  -0.00174   0.00021
 147        3PX         0.00000  -0.00053   0.00024  -0.00054   0.00015
 148        3PY         0.00000   0.00034   0.00002   0.00031  -0.00002
 149        3PZ         0.00000   0.00000   0.00000   0.00000   0.00000
 150        4XX         0.00000  -0.00827  -0.00001  -0.00049  -0.00003
 151        4YY         0.00000  -0.00810  -0.00001   0.00011  -0.00006
 152        4ZZ         0.00000  -0.00794  -0.00001   0.00012  -0.00009
 153        4XY         0.00000   0.00010   0.00000   0.00000  -0.00001
 154        4XZ         0.00000   0.00000   0.00000   0.00000   0.00000
 155        4YZ         0.00000   0.00000   0.00000   0.00000   0.00000
 156 14  H  1S          0.00000   0.00017   0.00000   0.00008  -0.00001
 157        2S          0.00000  -0.00053   0.00004   0.00042   0.00000
 158        3PX         0.00000  -0.00009   0.00001   0.00013  -0.00001
 159        3PY         0.00000  -0.00009   0.00000   0.00001   0.00001
 160        3PZ         0.00000  -0.00019   0.00000   0.00005   0.00002
 161 15  H  1S          0.00000   0.00017   0.00000   0.00008  -0.00001
 162        2S          0.00000  -0.00053   0.00004   0.00042   0.00000
 163        3PX         0.00000  -0.00009   0.00001   0.00013  -0.00001
 164        3PY         0.00000  -0.00009   0.00000   0.00001   0.00001
 165        3PZ         0.00000   0.00019   0.00000  -0.00005  -0.00002
                           6         7         8         9        10
                           O         O         O         O         O
     Eigenvalues --   -10.22258 -10.22149 -10.21430 -10.21163  -0.91645
   1 1   C  1S         -0.00305   0.99241   0.00044  -0.02805  -0.04241
   2        2S         -0.00006   0.04974  -0.00018  -0.00207   0.08236
   3        2PX        -0.00001  -0.00005   0.00001   0.00035  -0.01763
   4        2PY         0.00004  -0.00030   0.00003   0.00004  -0.02714
   5        2PZ         0.00000   0.00000   0.00000   0.00000   0.00002
   6        3S         -0.00419  -0.02039   0.00365   0.01027   0.05071
   7        3PX         0.00176   0.00263  -0.00157  -0.00333  -0.00311
   8        3PY         0.00208   0.00534  -0.00163  -0.00337  -0.00444
   9        3PZ         0.00000   0.00000   0.00000   0.00000   0.00000
  10        4XX         0.00008  -0.00910   0.00000  -0.00023   0.00182
  11        4YY         0.00011  -0.00911  -0.00002  -0.00002   0.00049
  12        4ZZ         0.00006  -0.00945  -0.00008   0.00004  -0.00464
  13        4XY        -0.00004  -0.00002  -0.00001   0.00002  -0.00041
  14        4XZ         0.00000   0.00000   0.00000   0.00000   0.00000
  15        4YZ         0.00000   0.00000   0.00000   0.00000   0.00000
  16 2   C  1S         -0.00997  -0.00964   0.00029   0.00024  -0.04555
  17        2S         -0.00106  -0.00104   0.00018   0.00017   0.09042
  18        2PX         0.00028   0.00028   0.00001   0.00002  -0.02237
  19        2PY         0.00032  -0.00032  -0.00001   0.00000  -0.00022
  20        2PZ         0.00000   0.00000   0.00000   0.00000  -0.00001
  21        3S          0.00878   0.00883  -0.00522  -0.00517   0.02491
  22        3PX        -0.00560  -0.00557   0.00217   0.00202  -0.01102
  23        3PY        -0.00227   0.00242   0.00090  -0.00092   0.00138
  24        3PZ         0.00000   0.00000   0.00000   0.00000   0.00001
  25        4XX        -0.00022  -0.00022   0.00005   0.00005   0.00183
  26        4YY        -0.00035  -0.00036   0.00007   0.00008   0.00117
  27        4ZZ        -0.00010  -0.00010   0.00005   0.00005  -0.00499
  28        4XY        -0.00008   0.00007   0.00002  -0.00002   0.00000
  29        4XZ         0.00000   0.00000   0.00000   0.00000   0.00000
  30        4YZ         0.00000   0.00000   0.00000   0.00000   0.00000
  31 3   C  1S          0.99224   0.00305  -0.03326   0.00023  -0.04407
  32        2S          0.04973   0.00024  -0.00234  -0.00019   0.08492
  33        2PX        -0.00004  -0.00001   0.00034   0.00001  -0.01869
  34        2PY         0.00029  -0.00003  -0.00005  -0.00003   0.02754
  35        2PZ         0.00000   0.00000   0.00000   0.00000   0.00002
  36        3S         -0.02034  -0.00434   0.01041   0.00353   0.05752
  37        3PX         0.00246   0.00173  -0.00325  -0.00146  -0.00444
  38        3PY        -0.00540  -0.00217   0.00354   0.00166   0.00780
  39        3PZ         0.00000   0.00000   0.00000   0.00000   0.00001
  40        4XX        -0.00910   0.00002  -0.00017   0.00000   0.00237
  41        4YY        -0.00911   0.00005   0.00003  -0.00002   0.00033
  42        4ZZ        -0.00945   0.00000   0.00009  -0.00008  -0.00493
  43        4XY         0.00002   0.00004  -0.00001   0.00001   0.00036
  44        4XZ         0.00000   0.00000   0.00000   0.00000  -0.00001
  45        4YZ         0.00000   0.00000   0.00000   0.00000   0.00000
  46 4   C  1S          0.03276  -0.00039   0.99225   0.00097  -0.06377
  47        2S          0.00095  -0.00023   0.04985   0.00012   0.12409
  48        2PX        -0.00032  -0.00002   0.00016   0.00002  -0.00835
  49        2PY        -0.00003  -0.00003   0.00014  -0.00003   0.04689
  50        2PZ         0.00000   0.00000   0.00000   0.00000   0.00000
  51        3S          0.00934   0.00369  -0.02079  -0.00403   0.04707
  52        3PX         0.00329   0.00157  -0.00268  -0.00176  -0.00547
  53        3PY         0.00331   0.00171  -0.00527  -0.00191  -0.01039
  54        3PZ         0.00000   0.00000   0.00000   0.00000   0.00000
  55        4XX        -0.00075   0.00000  -0.00909   0.00003   0.00148
  56        4YY        -0.00057   0.00000  -0.00912   0.00009   0.00183
  57        4ZZ        -0.00054  -0.00007  -0.00947   0.00002  -0.00674
  58        4XY         0.00002  -0.00001   0.00001  -0.00003  -0.00380
  59        4XZ         0.00000   0.00000   0.00000   0.00000  -0.00001
  60        4YZ         0.00000   0.00000   0.00000   0.00000   0.00000
  61 5   C  1S         -0.00038  -0.00030  -0.00915  -0.00843  -0.11337
  62        2S          0.00010   0.00011  -0.00109  -0.00106   0.21811
  63        2PX        -0.00002  -0.00002  -0.00021  -0.00022  -0.04243
  64        2PY         0.00002  -0.00002   0.00030  -0.00029  -0.00791
  65        2PZ         0.00000   0.00000   0.00000   0.00000   0.00003
  66        3S         -0.00454  -0.00460   0.00939   0.00940   0.12389
  67        3PX        -0.00235  -0.00241   0.00493   0.00482   0.03391
  68        3PY         0.00078  -0.00070  -0.00268   0.00235  -0.01050
  69        3PZ         0.00000   0.00000   0.00000   0.00000  -0.00003
  70        4XX         0.00005   0.00005  -0.00023  -0.00023   0.01088
  71        4YY         0.00004   0.00004  -0.00035  -0.00038  -0.00381
  72        4ZZ         0.00004   0.00004  -0.00012  -0.00013  -0.01339
  73        4XY        -0.00002   0.00002   0.00005  -0.00006   0.00095
  74        4XZ         0.00000   0.00000   0.00000   0.00000  -0.00002
  75        4YZ         0.00000   0.00000   0.00000   0.00000   0.00000
  76 6   C  1S         -0.00043   0.02755  -0.00097   0.99242  -0.05850
  77        2S         -0.00023   0.00069   0.00003   0.04982   0.11326
  78        2PX        -0.00001  -0.00031   0.00003   0.00022  -0.00630
  79        2PY         0.00003   0.00004   0.00003  -0.00024  -0.04556
  80        2PZ         0.00000   0.00000   0.00000   0.00000   0.00003
  81        3S          0.00360   0.00944  -0.00402  -0.02057   0.05500
  82        3PX         0.00148   0.00320  -0.00184  -0.00259  -0.00577
  83        3PY        -0.00173  -0.00343   0.00198   0.00528   0.00462
  84        3PZ         0.00000   0.00000   0.00000   0.00000   0.00000
  85        4XX         0.00000  -0.00070   0.00005  -0.00908   0.00211
  86        4YY         0.00000  -0.00052   0.00010  -0.00912   0.00170
  87        4ZZ        -0.00007  -0.00049   0.00004  -0.00946  -0.00626
  88        4XY         0.00001  -0.00001   0.00004   0.00001   0.00379
  89        4XZ         0.00000   0.00000   0.00000   0.00000  -0.00001
  90        4YZ         0.00000   0.00000   0.00000   0.00000  -0.00001
  91 7   H  1S         -0.00007  -0.00056   0.00006   0.00009   0.01450
  92        2S         -0.00060   0.00042   0.00053   0.00082   0.00148
  93        3PX         0.00001   0.00013   0.00001  -0.00003  -0.00085
  94        3PY        -0.00001   0.00020   0.00000  -0.00007  -0.00153
  95        3PZ         0.00000   0.00000   0.00000   0.00000   0.00000
  96 8   H  1S         -0.00056  -0.00008   0.00009   0.00006   0.01529
  97        2S          0.00043  -0.00060   0.00083   0.00053   0.00245
  98        3PX         0.00013   0.00001  -0.00003   0.00001  -0.00083
  99        3PY        -0.00020   0.00001   0.00007   0.00000   0.00161
 100        3PZ         0.00000   0.00000   0.00000   0.00000   0.00000
 101 9   H  1S          0.00006   0.00007  -0.00057  -0.00008   0.02573
 102        2S          0.00094   0.00054   0.00048  -0.00051   0.00051
 103        3PX         0.00003  -0.00001  -0.00015  -0.00001   0.00085
 104        3PY         0.00005   0.00000  -0.00022   0.00001   0.00321
 105        3PZ         0.00000   0.00000   0.00000   0.00000   0.00000
 106 10  H  1S          0.00007   0.00007  -0.00009  -0.00055   0.02181
 107        2S          0.00053   0.00094  -0.00054   0.00048  -0.00067
 108        3PX        -0.00001   0.00003   0.00000  -0.00012   0.00081
 109        3PY         0.00000  -0.00005  -0.00001   0.00020  -0.00280
 110        3PZ         0.00000   0.00000   0.00000   0.00000   0.00000
 111 11  C  1S          0.00018   0.00016   0.00002   0.00002  -0.03748
 112        2S         -0.00014  -0.00014  -0.00009  -0.00010   0.06983
 113        2PX         0.00002   0.00002   0.00003   0.00003   0.02474
 114        2PY         0.00002  -0.00002   0.00000   0.00000  -0.00037
 115        2PZ         0.00000   0.00000   0.00000   0.00000  -0.00003
 116        3S          0.00152   0.00153  -0.00020  -0.00016   0.02053
 117        3PX        -0.00139  -0.00141  -0.00060  -0.00066  -0.03915
 118        3PY         0.00025  -0.00020  -0.00024   0.00026   0.00015
 119        3PZ         0.00000   0.00000   0.00000   0.00000   0.00005
 120        4XX         0.00011   0.00011  -0.00003  -0.00003   0.00526
 121        4YY         0.00000   0.00000  -0.00004  -0.00004  -0.00466
 122        4ZZ        -0.00005  -0.00005  -0.00005  -0.00005  -0.00492
 123        4XY         0.00000   0.00000   0.00003  -0.00003  -0.00014
 124        4XZ         0.00000   0.00000   0.00000   0.00000  -0.00001
 125        4YZ         0.00000   0.00000   0.00000   0.00000   0.00000
 126 12  N  1S         -0.00001  -0.00001  -0.00001  -0.00001  -0.03506
 127        2S         -0.00006  -0.00006  -0.00004  -0.00004   0.06751
 128        2PX         0.00003   0.00003  -0.00001  -0.00001  -0.03869
 129        2PY         0.00000   0.00000  -0.00001   0.00001   0.00053
 130        2PZ         0.00000   0.00000   0.00000   0.00000   0.00005
 131        3S          0.00065   0.00066   0.00057   0.00062   0.09574
 132        3PX        -0.00010  -0.00010  -0.00015  -0.00017  -0.02129
 133        3PY        -0.00006   0.00006   0.00010  -0.00009   0.00046
 134        3PZ         0.00000   0.00000   0.00000   0.00000   0.00002
 135        4XX        -0.00005  -0.00006  -0.00001  -0.00001   0.00133
 136        4YY        -0.00001  -0.00001  -0.00002  -0.00002  -0.00384
 137        4ZZ        -0.00001  -0.00001  -0.00002  -0.00002  -0.00389
 138        4XY         0.00001  -0.00001  -0.00001   0.00001  -0.00010
 139        4XZ         0.00000   0.00000   0.00000   0.00000  -0.00001
 140        4YZ         0.00000   0.00000   0.00000   0.00000   0.00000
 141 13  N  1S         -0.00002  -0.00001  -0.00001  -0.00002  -0.14449
 142        2S         -0.00006  -0.00004  -0.00010  -0.00013   0.29339
 143        2PX        -0.00001  -0.00001   0.00000   0.00000   0.05088
 144        2PY         0.00002  -0.00001  -0.00001   0.00000  -0.05883
 145        2PZ         0.00000   0.00000   0.00000   0.00000  -0.00005
 146        3S         -0.00008  -0.00021   0.00092   0.00107   0.31091
 147        3PX         0.00000   0.00003   0.00056   0.00039   0.03680
 148        3PY        -0.00022   0.00017   0.00037  -0.00020  -0.02548
 149        3PZ         0.00000   0.00000   0.00000   0.00000  -0.00004
 150        4XX        -0.00003  -0.00001   0.00007   0.00004   0.00246
 151        4YY        -0.00004  -0.00004   0.00002   0.00000  -0.01074
 152        4ZZ        -0.00005  -0.00004  -0.00006  -0.00007  -0.00753
 153        4XY        -0.00004   0.00003   0.00000  -0.00001   0.00017
 154        4XZ         0.00000   0.00000   0.00000   0.00000  -0.00001
 155        4YZ         0.00000   0.00000   0.00000   0.00000   0.00000
 156 14  H  1S         -0.00004   0.00000   0.00001  -0.00001   0.09724
 157        2S         -0.00004   0.00000   0.00022   0.00007   0.00927
 158        3PX         0.00000  -0.00002  -0.00001   0.00002   0.00515
 159        3PY         0.00001   0.00000   0.00001   0.00001   0.00491
 160        3PZ         0.00001   0.00002   0.00003   0.00000   0.01097
 161 15  H  1S         -0.00004   0.00000   0.00001  -0.00001   0.09724
 162        2S         -0.00004   0.00000   0.00022   0.00007   0.00927
 163        3PX         0.00000  -0.00002  -0.00001   0.00002   0.00513
 164        3PY         0.00001   0.00000   0.00001   0.00001   0.00491
 165        3PZ        -0.00001  -0.00002  -0.00003   0.00000  -0.01098
                          11        12        13        14        15
                           O         O         O         O         O
     Eigenvalues --    -0.90248  -0.86343  -0.77044  -0.75982  -0.63325
   1 1   C  1S         -0.01406   0.09245   0.11310  -0.03967  -0.10813
   2        2S          0.02782  -0.17805  -0.22451   0.07863   0.22261
   3        2PX         0.01315   0.01425   0.06228   0.10082   0.05381
   4        2PY        -0.01284   0.05988  -0.00708  -0.05591   0.02833
   5        2PZ        -0.00001  -0.00002  -0.00004  -0.00005  -0.00002
   6        3S          0.02577  -0.10788  -0.16189   0.07258   0.19544
   7        3PX        -0.00902  -0.00017   0.00197   0.01044   0.02556
   8        3PY        -0.00222   0.00507  -0.00646  -0.00799   0.02800
   9        3PZ         0.00001   0.00000   0.00000   0.00000  -0.00001
  10        4XX         0.00036  -0.00073  -0.00528  -0.00703  -0.00730
  11        4YY         0.00058  -0.00204   0.00647   0.00637  -0.00226
  12        4ZZ        -0.00122   0.01055   0.01113  -0.00399  -0.00905
  13        4XY        -0.00180   0.00243   0.00005  -0.00688   0.00046
  14        4XZ         0.00000   0.00001   0.00001   0.00000   0.00000
  15        4YZ         0.00000   0.00000   0.00000   0.00000   0.00000
  16 2   C  1S         -0.03529   0.10576  -0.00495  -0.12275   0.03578
  17        2S          0.07334  -0.20761   0.00997   0.24883  -0.07587
  18        2PX         0.02091   0.06051  -0.00125   0.01984  -0.06349
  19        2PY        -0.00024  -0.00075  -0.12734   0.00576   0.19360
  20        2PZ        -0.00004   0.00001   0.00000  -0.00008   0.00007
  21        3S         -0.04642  -0.14688   0.00884   0.20357  -0.06521
  22        3PX        -0.04533   0.00899   0.00133   0.03770  -0.02752
  23        3PY         0.00023   0.00033  -0.01861  -0.00035   0.03747
  24        3PZ         0.00005   0.00001   0.00000  -0.00005   0.00003
  25        4XX         0.00443   0.00073   0.00015  -0.00206  -0.00199
  26        4YY        -0.00038  -0.00373  -0.00018   0.00081   0.00474
  27        4ZZ        -0.00341   0.01181  -0.00050  -0.01190   0.00294
  28        4XY        -0.00008  -0.00009   0.01093  -0.00044  -0.00672
  29        4XZ        -0.00001   0.00000   0.00000  -0.00001   0.00001
  30        4YZ         0.00000   0.00000   0.00000   0.00000  -0.00001
  31 3   C  1S         -0.01365   0.09219  -0.11689  -0.02855   0.04213
  32        2S          0.02724  -0.17782   0.23172   0.05685  -0.08779
  33        2PX         0.01418   0.01147  -0.05442   0.10795  -0.15533
  34        2PY         0.01252  -0.06032  -0.00220   0.05386  -0.04586
  35        2PZ        -0.00001  -0.00003   0.00006  -0.00006   0.00009
  36        3S          0.02389  -0.10635   0.17194   0.05323  -0.05949
  37        3PX        -0.00853  -0.00085  -0.00386   0.01166  -0.05795
  38        3PY         0.00141  -0.00381  -0.00722   0.00671  -0.00282
  39        3PZ         0.00001   0.00000   0.00001   0.00000   0.00004
  40        4XX         0.00026  -0.00053   0.00476  -0.00704   0.00716
  41        4YY         0.00053  -0.00198  -0.00602   0.00661  -0.00284
  42        4ZZ        -0.00114   0.01049  -0.01158  -0.00285   0.00352
  43        4XY         0.00182  -0.00251   0.00037   0.00729  -0.00355
  44        4XZ         0.00000   0.00001  -0.00002   0.00001  -0.00001
  45        4YZ         0.00000   0.00000   0.00000   0.00000   0.00000
  46 4   C  1S          0.00673   0.05741  -0.10846   0.08783  -0.09019
  47        2S         -0.01105  -0.10829   0.21315  -0.17340   0.18497
  48        2PX         0.01479  -0.05812   0.06431   0.03165  -0.02878
  49        2PY        -0.00773  -0.02352  -0.01183  -0.05841  -0.05051
  50        2PZ        -0.00001   0.00005  -0.00006  -0.00001   0.00000
  51        3S         -0.02091  -0.07902   0.16269  -0.13022   0.14897
  52        3PX        -0.00805  -0.01023   0.00380  -0.00090  -0.04063
  53        3PY        -0.00474  -0.00995  -0.00364  -0.00075  -0.02658
  54        3PZ         0.00000   0.00001  -0.00001   0.00001   0.00002
  55        4XX         0.00015  -0.00281   0.00545   0.00608  -0.00410
  56        4YY        -0.00072   0.00109  -0.00654  -0.00429  -0.00440
  57        4ZZ         0.00105   0.00681  -0.01072   0.00853  -0.00738
  58        4XY         0.00148  -0.00221   0.00000   0.00376   0.00144
  59        4XZ         0.00000   0.00001  -0.00001   0.00000   0.00000
  60        4YZ         0.00000   0.00000   0.00000   0.00000   0.00000
  61 5   C  1S          0.02786   0.00992   0.00773   0.09853   0.05478
  62        2S         -0.05390  -0.02005  -0.01570  -0.19947  -0.11635
  63        2PX         0.02863  -0.11092  -0.00297  -0.11208   0.00413
  64        2PY         0.00269  -0.00476  -0.11943   0.00091  -0.19167
  65        2PZ        -0.00002   0.00010   0.00002   0.00011   0.00004
  66        3S         -0.01842  -0.01109  -0.01538  -0.15589  -0.10239
  67        3PX        -0.00008  -0.00632  -0.00181  -0.01101   0.01956
  68        3PY         0.00313  -0.00317  -0.01418   0.00544  -0.02702
  69        3PZ         0.00000   0.00000   0.00001   0.00001   0.00000
  70        4XX        -0.00349   0.00765  -0.00032   0.00977   0.00255
  71        4YY         0.00197  -0.00613   0.00037  -0.00683   0.00247
  72        4ZZ         0.00336   0.00092   0.00077   0.00939   0.00465
  73        4XY        -0.00036   0.00080  -0.01074   0.00134  -0.00669
  74        4XZ         0.00001  -0.00001   0.00000   0.00000   0.00000
  75        4YZ         0.00000   0.00000   0.00001   0.00000   0.00001
  76 6   C  1S          0.00499   0.06015   0.11521   0.07879   0.06322
  77        2S         -0.00744  -0.11406  -0.22716  -0.15551  -0.12971
  78        2PX         0.01371  -0.05468  -0.05926   0.04215   0.17050
  79        2PY         0.00678   0.02688   0.00041   0.06047   0.06291
  80        2PZ        -0.00001   0.00002   0.00001  -0.00005  -0.00014
  81        3S         -0.02334  -0.07706  -0.17002  -0.12304  -0.12026
  82        3PX        -0.00760  -0.01035  -0.00856  -0.00023   0.04160
  83        3PY         0.00674   0.00887  -0.00488   0.00513   0.00535
  84        3PZ         0.00000   0.00000   0.00000   0.00000  -0.00003
  85        4XX        -0.00009  -0.00236  -0.00497   0.00660   0.01062
  86        4YY        -0.00065   0.00088   0.00600  -0.00492  -0.00477
  87        4ZZ         0.00088   0.00714   0.01136   0.00777   0.00518
  88        4XY        -0.00150   0.00228  -0.00031  -0.00440  -0.00463
  89        4XZ         0.00000   0.00000   0.00001   0.00000   0.00000
  90        4YZ         0.00000   0.00000   0.00000   0.00001   0.00001
  91 7   H  1S          0.00747  -0.03602  -0.06577   0.02774   0.10912
  92        2S          0.00321  -0.00503  -0.01489   0.00797   0.03878
  93        3PX         0.00004   0.00215   0.00405  -0.00010  -0.00406
  94        3PY        -0.00111   0.00379   0.00545  -0.00299  -0.00766
  95        3PZ         0.00000   0.00000   0.00000   0.00000   0.00000
  96 8   H  1S          0.00730  -0.03602   0.06871   0.02102  -0.04936
  97        2S          0.00293  -0.00477   0.01589   0.00595  -0.01666
  98        3PX         0.00008   0.00205  -0.00390   0.00037  -0.00021
  99        3PY         0.00110  -0.00385   0.00587   0.00243  -0.00443
 100        3PZ         0.00000   0.00000   0.00000   0.00000   0.00000
 101 9   H  1S         -0.00426  -0.01778   0.06403  -0.04655   0.09867
 102        2S         -0.00429  -0.00363   0.01691  -0.00982   0.03808
 103        3PX         0.00015  -0.00182   0.00396  -0.00214   0.00402
 104        3PY        -0.00069  -0.00154   0.00523  -0.00440   0.00651
 105        3PZ         0.00000   0.00000   0.00000   0.00000   0.00000
 106 10  H  1S         -0.00300  -0.01943  -0.06507  -0.04068  -0.06207
 107        2S         -0.00387  -0.00423  -0.01506  -0.00839  -0.02183
 108        3PX         0.00015  -0.00174  -0.00386  -0.00162  -0.00009
 109        3PY         0.00054   0.00179   0.00563   0.00400   0.00569
 110        3PZ         0.00000   0.00000   0.00000   0.00000   0.00000
 111 11  C  1S         -0.15003  -0.01865  -0.00094  -0.02605   0.02672
 112        2S          0.27787   0.03414   0.00193   0.05537  -0.05667
 113        2PX         0.18510   0.10729  -0.00541  -0.13285   0.08182
 114        2PY        -0.00267  -0.00152  -0.01262   0.00252   0.03049
 115        2PZ        -0.00022  -0.00012   0.00001   0.00015  -0.00010
 116        3S          0.08803   0.00245   0.00122   0.03472  -0.04823
 117        3PX        -0.15723  -0.01045   0.00035   0.01114   0.00875
 118        3PY         0.00234   0.00001  -0.00326   0.00017   0.01437
 119        3PZ         0.00019   0.00001   0.00000  -0.00002  -0.00001
 120        4XX         0.01458  -0.00324   0.00033   0.00768  -0.00348
 121        4YY        -0.01946  -0.00318  -0.00008  -0.00081   0.00167
 122        4ZZ        -0.02030  -0.00290  -0.00008  -0.00166   0.00163
 123        4XY        -0.00057   0.00000   0.00191  -0.00024  -0.00392
 124        4XZ        -0.00005   0.00000   0.00000  -0.00001   0.00001
 125        4YZ         0.00000   0.00000   0.00000   0.00000   0.00000
 126 12  N  1S         -0.17203  -0.05314   0.00143   0.03477  -0.01670
 127        2S          0.33717   0.10875  -0.00295  -0.07169   0.03532
 128        2PX        -0.18879  -0.05666   0.00123   0.02998  -0.00681
 129        2PY         0.00269   0.00080  -0.00286  -0.00028   0.01042
 130        2PZ         0.00023   0.00007   0.00000  -0.00004   0.00001
 131        3S          0.43866   0.10827  -0.00342  -0.08566   0.04215
 132        3PX        -0.09091  -0.01707   0.00039   0.00988  -0.00098
 133        3PY         0.00123   0.00029  -0.00078  -0.00016   0.00168
 134        3PZ         0.00011   0.00002   0.00000  -0.00001   0.00000
 135        4XX         0.00813   0.00358  -0.00004  -0.00134  -0.00031
 136        4YY        -0.01801  -0.00490   0.00013   0.00345  -0.00137
 137        4ZZ        -0.01824  -0.00496   0.00014   0.00350  -0.00146
 138        4XY        -0.00043  -0.00015   0.00058   0.00006  -0.00151
 139        4XZ        -0.00004  -0.00001   0.00000   0.00001   0.00000
 140        4YZ         0.00000   0.00000   0.00000   0.00000   0.00000
 141 13  N  1S          0.05227  -0.10144   0.00199  -0.07161  -0.00979
 142        2S         -0.10621   0.21043  -0.00459   0.15119   0.01880
 143        2PX        -0.01468   0.00680  -0.00560  -0.05664  -0.07171
 144        2PY         0.02204  -0.04805  -0.01507  -0.04835  -0.06362
 145        2PZ         0.00002  -0.00001   0.00001   0.00005   0.00008
 146        3S         -0.11177   0.21628  -0.00367   0.17398   0.03945
 147        3PX        -0.01169   0.00921  -0.00124  -0.01424  -0.02174
 148        3PY         0.00954  -0.02054  -0.00630  -0.02128  -0.03327
 149        3PZ         0.00001  -0.00001   0.00000   0.00001   0.00003
 150        4XX        -0.00020  -0.00296  -0.00093  -0.00920  -0.00753
 151        4YY         0.00384  -0.00574   0.00077  -0.00259   0.00251
 152        4ZZ         0.00276  -0.00335  -0.00013   0.00005   0.00088
 153        4XY        -0.00017   0.00115  -0.00178   0.00299  -0.00206
 154        4XZ         0.00000   0.00000   0.00000   0.00001   0.00001
 155        4YZ         0.00000   0.00000   0.00000   0.00000   0.00000
 156 14  H  1S         -0.03618   0.07730   0.00266   0.07225   0.03577
 157        2S         -0.00388   0.01050   0.00096   0.01699   0.01561
 158        3PX        -0.00182   0.00356   0.00018   0.00172  -0.00003
 159        3PY        -0.00183   0.00364  -0.00030   0.00291   0.00001
 160        3PZ        -0.00410   0.00830   0.00026   0.00709   0.00306
 161 15  H  1S         -0.03618   0.07730   0.00266   0.07225   0.03579
 162        2S         -0.00388   0.01050   0.00096   0.01699   0.01561
 163        3PX        -0.00181   0.00354   0.00018   0.00171  -0.00004
 164        3PY        -0.00183   0.00364  -0.00030   0.00291   0.00001
 165        3PZ         0.00410  -0.00831  -0.00026  -0.00709  -0.00307
                          16        17        18        19        20
                           O         O         O         O         O
     Eigenvalues --    -0.62789  -0.55872  -0.50603  -0.50114  -0.48271
   1 1   C  1S         -0.02009   0.00174  -0.00001  -0.04612  -0.02194
   2        2S          0.04069  -0.00241   0.00001   0.09613   0.04707
   3        2PX        -0.14957   0.01483  -0.00007   0.20110  -0.14787
   4        2PY         0.07748   0.18904   0.00010   0.03452   0.17571
   5        2PZ         0.00006  -0.00007   0.01842  -0.00007  -0.00001
   6        3S          0.05017  -0.01778   0.00001   0.13658   0.04287
   7        3PX        -0.04692   0.02807  -0.00003   0.05438  -0.06226
   8        3PY         0.01861   0.06298   0.00005   0.01089   0.05876
   9        3PZ         0.00002  -0.00003   0.00889  -0.00001   0.00000
  10        4XX         0.00365   0.00746   0.00000  -0.01082  -0.00118
  11        4YY        -0.00483  -0.00683   0.00000   0.00656  -0.00167
  12        4ZZ        -0.00158   0.00075   0.00000  -0.00325  -0.00109
  13        4XY         0.00435  -0.00187   0.00000   0.00284   0.00592
  14        4XZ         0.00000   0.00000  -0.00143   0.00000   0.00000
  15        4YZ         0.00000   0.00001  -0.00074  -0.00001   0.00000
  16 2   C  1S          0.06345   0.01927   0.00001   0.01274   0.00744
  17        2S         -0.13471  -0.04356  -0.00002  -0.02679  -0.01582
  18        2PX        -0.12778   0.27255   0.00003  -0.11919  -0.03520
  19        2PY        -0.10955  -0.00356  -0.00012   0.09445  -0.25792
  20        2PZ         0.00013  -0.00021   0.01360   0.00011   0.00000
  21        3S         -0.11831   0.01175  -0.00001  -0.03897  -0.02372
  22        3PX        -0.05381   0.08471   0.00001   0.00561   0.00917
  23        3PY        -0.02389  -0.00264  -0.00001   0.02409  -0.04797
  24        3PZ         0.00005  -0.00008   0.00674   0.00001  -0.00002
  25        4XX        -0.00362   0.00737   0.00000  -0.01348  -0.00552
  26        4YY         0.00866  -0.00103   0.00000   0.01360   0.00587
  27        4ZZ         0.00519   0.00118   0.00000   0.00133   0.00063
  28        4XY         0.00401  -0.00030   0.00000   0.00052  -0.00011
  29        4XZ         0.00002  -0.00002  -0.00086   0.00002   0.00001
  30        4YZ         0.00000   0.00000  -0.00008   0.00000   0.00001
  31 3   C  1S         -0.10278   0.00158  -0.00001  -0.04426  -0.01127
  32        2S          0.21240  -0.00274   0.00002   0.09248   0.02072
  33        2PX        -0.02327   0.01258   0.00013   0.03342   0.27099
  34        2PY        -0.06342  -0.19403   0.00000  -0.11121   0.08269
  35        2PZ         0.00003  -0.00007   0.02012  -0.00004  -0.00017
  36        3S          0.18737  -0.01267   0.00004   0.12128   0.06689
  37        3PX         0.00049   0.02176   0.00005   0.00114   0.09295
  38        3PY        -0.03816  -0.06522   0.00001  -0.02375   0.03597
  39        3PZ         0.00000  -0.00004   0.00677   0.00000  -0.00005
  40        4XX        -0.00526   0.00745   0.00000  -0.00796  -0.00548
  41        4YY        -0.00383  -0.00678   0.00000   0.00351   0.00550
  42        4ZZ        -0.00835   0.00063   0.00000  -0.00294  -0.00137
  43        4XY        -0.00266   0.00154   0.00000  -0.00454   0.00127
  44        4XZ         0.00000  -0.00001  -0.00136   0.00000   0.00001
  45        4YZ         0.00000  -0.00001   0.00077   0.00001   0.00000
  46 4   C  1S          0.02763  -0.03917   0.00001   0.03955   0.01832
  47        2S         -0.05588   0.08093  -0.00002  -0.07961  -0.04001
  48        2PX         0.18166  -0.05513  -0.00004   0.04648  -0.23354
  49        2PY        -0.10562  -0.16726   0.00006  -0.04333   0.14357
  50        2PZ        -0.00014  -0.00001   0.05014  -0.00002   0.00020
  51        3S         -0.05975   0.10689  -0.00004  -0.13109  -0.02662
  52        3PX         0.03372  -0.00735  -0.00001   0.02475  -0.08543
  53        3PY        -0.02438  -0.05412   0.00000  -0.03239   0.04904
  54        3PZ        -0.00003  -0.00001   0.02485  -0.00001   0.00007
  55        4XX         0.01096  -0.00125   0.00000   0.00792  -0.00159
  56        4YY        -0.00837  -0.00178   0.00000  -0.00294   0.00402
  57        4ZZ         0.00235  -0.00259   0.00000   0.00327   0.00105
  58        4XY         0.00477  -0.00132   0.00000  -0.00584  -0.00618
  59        4XZ        -0.00001   0.00000  -0.00189  -0.00001   0.00001
  60        4YZ         0.00000   0.00000   0.00335   0.00001   0.00000
  61 5   C  1S          0.09138   0.01474  -0.00002  -0.05051  -0.02498
  62        2S         -0.19458  -0.03047   0.00004   0.10992   0.05495
  63        2PX        -0.01209  -0.08087   0.00006  -0.22830  -0.05978
  64        2PY         0.10520   0.01039  -0.00009   0.08566  -0.25936
  65        2PZ         0.00000   0.00004   0.13762   0.00020   0.00005
  66        3S         -0.14946  -0.01291   0.00002   0.14009   0.05270
  67        3PX         0.03566  -0.04985   0.00006  -0.06636  -0.02244
  68        3PY         0.03091   0.00064  -0.00006  -0.01306  -0.05916
  69        3PZ        -0.00003   0.00003   0.06956   0.00007   0.00000
  70        4XX         0.00761  -0.00393  -0.00002   0.00633  -0.00048
  71        4YY         0.00174   0.00794   0.00000  -0.01151  -0.00311
  72        4ZZ         0.00743   0.00120   0.00002  -0.00548  -0.00202
  73        4XY         0.00568   0.00005   0.00000  -0.00429  -0.00170
  74        4XZ         0.00000   0.00000  -0.01308  -0.00001   0.00001
  75        4YZ         0.00000   0.00000  -0.00167   0.00000   0.00000
  76 6   C  1S         -0.06447  -0.04204   0.00000   0.05475   0.01765
  77        2S          0.13439   0.08670   0.00000  -0.11530  -0.03618
  78        2PX         0.07974  -0.05187   0.00012  -0.09655   0.19401
  79        2PY         0.09533   0.15766   0.00009  -0.03326   0.10429
  80        2PZ        -0.00007  -0.00002   0.04621   0.00010  -0.00019
  81        3S          0.08214   0.12107   0.00002  -0.11389  -0.06156
  82        3PX        -0.00410  -0.00057   0.00001  -0.04136   0.06413
  83        3PY         0.04749   0.05054   0.00001  -0.01821   0.03328
  84        3PZ        -0.00001  -0.00001   0.01605   0.00005  -0.00007
  85        4XX         0.00235  -0.00105   0.00000   0.00754   0.00557
  86        4YY        -0.00870  -0.00228   0.00000   0.00005  -0.00296
  87        4ZZ        -0.00496  -0.00281   0.00000   0.00384   0.00138
  88        4XY        -0.00414   0.00198   0.00000   0.00835   0.00105
  89        4XZ         0.00000   0.00000  -0.00168  -0.00001   0.00000
  90        4YZ         0.00001   0.00000  -0.00347  -0.00001   0.00000
  91 7   H  1S          0.01209   0.08107   0.00003   0.12073   0.06683
  92        2S          0.00615   0.04611   0.00002   0.08010   0.05129
  93        3PX        -0.00284  -0.00307   0.00000  -0.00089  -0.00521
  94        3PY         0.00041  -0.00259   0.00000  -0.00638  -0.00070
  95        3PZ         0.00000   0.00000   0.00030   0.00000   0.00000
  96 8   H  1S          0.10283   0.08420   0.00004   0.10895   0.04617
  97        2S          0.03768   0.04920   0.00003   0.07737   0.03188
  98        3PX        -0.00473  -0.00302   0.00000  -0.00346   0.00352
  99        3PY         0.00663   0.00283   0.00000   0.00435   0.00408
 100        3PZ         0.00001   0.00000   0.00041   0.00000   0.00000
 101 9   H  1S         -0.02320   0.12120  -0.00003  -0.03669  -0.02344
 102        2S         -0.00963   0.07350  -0.00003  -0.02765  -0.01790
 103        3PX         0.00172   0.00391   0.00000  -0.00010  -0.00501
 104        3PY        -0.00325   0.00529   0.00000  -0.00249   0.00138
 105        3PZ         0.00000   0.00000   0.00128   0.00000   0.00000
 106 10  H  1S          0.07041   0.11603   0.00001  -0.04673  -0.02083
 107        2S          0.02281   0.06554   0.00000  -0.02620  -0.01143
 108        3PX         0.00443   0.00380   0.00000  -0.00357   0.00314
 109        3PY        -0.00399  -0.00536   0.00000   0.00177   0.00310
 110        3PZ         0.00000   0.00000   0.00119   0.00000   0.00000
 111 11  C  1S          0.05030  -0.06656   0.00000   0.05291   0.01834
 112        2S         -0.10641   0.14393   0.00000  -0.11323  -0.03971
 113        2PX         0.15078  -0.17409   0.00000   0.11974   0.03824
 114        2PY        -0.02083   0.00235  -0.00003   0.02320  -0.07336
 115        2PZ        -0.00019   0.00022   0.00346  -0.00016  -0.00006
 116        3S         -0.09170   0.15859   0.00001  -0.13861  -0.04894
 117        3PX         0.01753  -0.00380   0.00000   0.06086   0.02300
 118        3PY        -0.00845  -0.00021  -0.00002   0.01429  -0.04723
 119        3PZ        -0.00002   0.00001   0.00099  -0.00009  -0.00004
 120        4XX        -0.00595   0.00102   0.00000  -0.00208  -0.00069
 121        4YY         0.00297  -0.00260   0.00000   0.00394   0.00135
 122        4ZZ         0.00313  -0.00339   0.00000   0.00248   0.00073
 123        4XY         0.00244  -0.00006   0.00000  -0.00187   0.00548
 124        4XZ         0.00001  -0.00001  -0.00024   0.00001   0.00000
 125        4YZ         0.00000   0.00000   0.00000   0.00000  -0.00001
 126 12  N  1S         -0.03096   0.03922   0.00000  -0.02789  -0.00959
 127        2S          0.06555  -0.07987   0.00000   0.06144   0.02135
 128        2PX        -0.01213  -0.00186   0.00000   0.01659   0.00735
 129        2PY        -0.00601  -0.00006  -0.00001   0.01212  -0.03851
 130        2PZ         0.00001   0.00001   0.00162  -0.00003  -0.00002
 131        3S          0.07776  -0.13706   0.00000   0.06291   0.02050
 132        3PX        -0.00136   0.00606   0.00000   0.01484   0.00665
 133        3PY        -0.00118  -0.00003   0.00000   0.00274  -0.00948
 134        3PZ         0.00000  -0.00001   0.00085  -0.00002  -0.00001
 135        4XX        -0.00060   0.00370   0.00000  -0.00284  -0.00098
 136        4YY        -0.00260   0.00358   0.00000  -0.00121  -0.00042
 137        4ZZ        -0.00267   0.00353   0.00000  -0.00142  -0.00042
 138        4XY         0.00086   0.00000   0.00000  -0.00128   0.00389
 139        4XZ         0.00000   0.00000  -0.00021   0.00000   0.00000
 140        4YZ         0.00000   0.00000   0.00000   0.00000   0.00000
 141 13  N  1S         -0.03608   0.00730   0.00001   0.00053   0.01574
 142        2S          0.07679  -0.01289  -0.00001   0.00379  -0.03563
 143        2PX        -0.11061   0.04278   0.00048   0.28731   0.09819
 144        2PY        -0.02490   0.01806  -0.00005   0.12254  -0.05252
 145        2PZ         0.00008  -0.00007   0.46216  -0.00027  -0.00031
 146        3S          0.11438  -0.04113   0.00000  -0.00322  -0.04536
 147        3PX        -0.03749   0.00802   0.00023   0.13106   0.05034
 148        3PY        -0.01038   0.00922  -0.00002   0.07149  -0.04257
 149        3PZ         0.00003  -0.00002   0.21209  -0.00013  -0.00015
 150        4XX        -0.01042   0.00161   0.00000   0.01655   0.00386
 151        4YY        -0.00032   0.00099   0.00001  -0.00807   0.00191
 152        4ZZ         0.00285  -0.00066  -0.00001  -0.00597  -0.00347
 153        4XY         0.00682  -0.00138  -0.00003  -0.00672  -0.01158
 154        4XZ         0.00001   0.00000   0.00026  -0.00002  -0.00001
 155        4YZ        -0.00001   0.00000  -0.02726   0.00001   0.00002
 156 14  H  1S          0.05626  -0.01810  -0.23126  -0.09396  -0.02428
 157        2S          0.02301  -0.00812  -0.14772  -0.06041  -0.01681
 158        3PX        -0.00083   0.00084  -0.00723   0.00461   0.00252
 159        3PY         0.00201  -0.00054  -0.00794  -0.00032  -0.00197
 160        3PZ         0.00468  -0.00144  -0.00310  -0.00656  -0.00150
 161 15  H  1S          0.05625  -0.01813   0.23121  -0.09399  -0.02451
 162        2S          0.02300  -0.00814   0.14769  -0.06043  -0.01696
 163        3PX        -0.00084   0.00084   0.00723   0.00462   0.00252
 164        3PY         0.00201  -0.00054   0.00794  -0.00032  -0.00198
 165        3PZ        -0.00468   0.00144  -0.00310   0.00655   0.00150
                          21        22        23        24        25
                           O         O         O         O         O
     Eigenvalues --    -0.45774  -0.44264  -0.39869  -0.39845  -0.37523
   1 1   C  1S         -0.01748   0.02094  -0.01232   0.00012  -0.00508
   2        2S          0.03440  -0.04803   0.03201  -0.00032   0.00314
   3        2PX         0.02895   0.15059  -0.26632   0.00270   0.02616
   4        2PY         0.17691   0.19882   0.00168   0.00007   0.21843
   5        2PZ        -0.00008  -0.00009   0.00221   0.21249  -0.00011
   6        3S          0.02553  -0.09416   0.02323  -0.00022   0.05095
   7        3PX         0.04761   0.02905  -0.09790   0.00105  -0.01564
   8        3PY         0.04621   0.07861   0.03105  -0.00027   0.05671
   9        3PZ        -0.00005  -0.00002   0.00121   0.12040  -0.00004
  10        4XX         0.00350  -0.00438   0.00651  -0.00006  -0.00122
  11        4YY        -0.00564   0.00874  -0.01105   0.00010   0.00546
  12        4ZZ        -0.00162   0.00094   0.00006   0.00001  -0.00103
  13        4XY         0.01269   0.00056   0.00006   0.00000   0.01868
  14        4XZ        -0.00001   0.00000  -0.00002  -0.00183   0.00000
  15        4YZ         0.00000   0.00000  -0.00010  -0.01059  -0.00001
  16 2   C  1S          0.05856  -0.00374   0.02244  -0.00026  -0.00036
  17        2S         -0.12894   0.00798  -0.05146   0.00060   0.00109
  18        2PX         0.17920  -0.00443   0.08241  -0.00056  -0.00147
  19        2PY         0.02046  -0.09703  -0.03725   0.00034  -0.23570
  20        2PZ        -0.00014   0.00008   0.00276   0.28493  -0.00005
  21        3S         -0.18291   0.01522  -0.05596   0.00060  -0.00321
  22        3PX         0.01301  -0.00505  -0.05811   0.00058   0.00901
  23        3PY         0.00733   0.02324  -0.00470   0.00001  -0.08011
  24        3PZ         0.00000   0.00004   0.00159   0.15581  -0.00003
  25        4XX         0.00737   0.00125   0.01961  -0.00019  -0.00149
  26        4YY         0.00348  -0.00162  -0.01095   0.00012   0.00087
  27        4ZZ         0.00322  -0.00024   0.00104  -0.00003  -0.00004
  28        4XY         0.00101   0.01391  -0.00132   0.00001   0.00518
  29        4XZ        -0.00001   0.00000  -0.00005  -0.00355   0.00000
  30        4YZ         0.00000  -0.00001   0.00000  -0.00007   0.00000
  31 3   C  1S         -0.02240  -0.01598  -0.00363   0.00006   0.00732
  32        2S          0.04666   0.03936   0.01352  -0.00018  -0.00971
  33        2PX        -0.04263  -0.17728  -0.21287   0.00234   0.02732
  34        2PY        -0.17906   0.23460   0.04434  -0.00058   0.20305
  35        2PZ        -0.00006   0.00029   0.00234   0.21540   0.00005
  36        3S          0.02992   0.06795  -0.01509   0.00002  -0.05602
  37        3PX         0.02926  -0.03493  -0.06049   0.00075   0.03995
  38        3PY        -0.05105   0.08418  -0.00479  -0.00006   0.06112
  39        3PZ        -0.00007   0.00011   0.00126   0.12206  -0.00001
  40        4XX         0.00361   0.00530   0.00674  -0.00007   0.00144
  41        4YY        -0.00673  -0.00960  -0.01044   0.00010  -0.00468
  42        4ZZ        -0.00161  -0.00035   0.00048   0.00001   0.00086
  43        4XY        -0.01456   0.00293   0.00304  -0.00002   0.01681
  44        4XZ        -0.00001  -0.00001  -0.00003  -0.00161   0.00001
  45        4YZ         0.00001   0.00000   0.00010   0.01062  -0.00001
  46 4   C  1S          0.01765  -0.02243  -0.00313   0.00002  -0.00453
  47        2S         -0.03498   0.05130   0.01241  -0.00011   0.00243
  48        2PX         0.12571   0.17150   0.20378  -0.00196  -0.01166
  49        2PY         0.22008   0.17612  -0.04344   0.00035  -0.21150
  50        2PZ        -0.00009  -0.00003   0.00156   0.16708  -0.00008
  51        3S         -0.02032   0.09385  -0.02824   0.00033   0.04871
  52        3PX         0.07509   0.03099   0.06880  -0.00061   0.03133
  53        3PY         0.05948   0.06876  -0.04853   0.00046  -0.05635
  54        3PZ        -0.00007   0.00002   0.00089   0.09256  -0.00006
  55        4XX        -0.00053   0.00556   0.00895  -0.00008  -0.00227
  56        4YY         0.00148  -0.01007  -0.01156   0.00012   0.00700
  57        4ZZ         0.00152  -0.00087   0.00027  -0.00001  -0.00105
  58        4XY        -0.01267   0.00030   0.00084   0.00000   0.01747
  59        4XZ        -0.00001  -0.00001   0.00005   0.00638   0.00001
  60        4YZ         0.00000   0.00000   0.00006   0.00626  -0.00001
  61 5   C  1S         -0.03862   0.00642   0.01365  -0.00014   0.00010
  62        2S          0.08402  -0.01512  -0.03465   0.00036   0.00087
  63        2PX         0.19803  -0.02313  -0.22011   0.00239   0.05105
  64        2PY         0.00141  -0.07989   0.00387   0.00005   0.25486
  65        2PZ        -0.00018   0.00007   0.00164   0.13760  -0.00014
  66        3S          0.12693  -0.00839  -0.00681   0.00013   0.00106
  67        3PX         0.05372  -0.00681  -0.00013   0.00011   0.00677
  68        3PY         0.01092   0.03369  -0.02749   0.00031   0.08534
  69        3PZ        -0.00006   0.00002   0.00082   0.07842  -0.00005
  70        4XX        -0.00064   0.00095   0.02315  -0.00022  -0.00183
  71        4YY        -0.00645   0.00084  -0.01556   0.00016   0.00101
  72        4ZZ        -0.00120   0.00008  -0.00225   0.00000   0.00051
  73        4XY         0.00019  -0.01361  -0.00366   0.00004   0.00733
  74        4XZ         0.00000   0.00000   0.00009   0.01096   0.00000
  75        4YZ         0.00000   0.00001   0.00001  -0.00011   0.00000
  76 6   C  1S          0.01956   0.01395   0.00662  -0.00007   0.00464
  77        2S         -0.03911  -0.03322  -0.00849   0.00010  -0.00337
  78        2PX         0.05262  -0.15449   0.27241  -0.00257  -0.03507
  79        2PY        -0.19352   0.22565  -0.00499  -0.00002  -0.24019
  80        2PZ         0.00001   0.00004   0.00149   0.16327   0.00008
  81        3S         -0.04259  -0.06704  -0.04158   0.00041  -0.04390
  82        3PX         0.05055  -0.01956   0.05682  -0.00050  -0.03544
  83        3PY        -0.04737   0.08760   0.00941  -0.00007  -0.07309
  84        3PZ        -0.00002  -0.00001   0.00087   0.08866   0.00004
  85        4XX        -0.00205  -0.00473   0.01239  -0.00012  -0.00014
  86        4YY         0.00353   0.00800  -0.01403   0.00013  -0.00402
  87        4ZZ         0.00157   0.00047   0.00074  -0.00001   0.00095
  88        4XY         0.01117  -0.00152   0.00176  -0.00002   0.01720
  89        4XZ         0.00000   0.00000   0.00005   0.00630  -0.00001
  90        4YZ        -0.00001   0.00000  -0.00007  -0.00661  -0.00001
  91 7   H  1S          0.12145   0.13120  -0.07768   0.00078   0.15770
  92        2S          0.09353   0.12031  -0.08573   0.00085   0.16157
  93        3PX        -0.00310  -0.00192  -0.00192   0.00002  -0.00321
  94        3PY        -0.00376  -0.00376   0.00346  -0.00003  -0.00284
  95        3PZ         0.00000   0.00000   0.00004   0.00437   0.00000
  96 8   H  1S          0.10881  -0.16497  -0.09449   0.00098  -0.13404
  97        2S          0.08139  -0.15051  -0.09845   0.00100  -0.13569
  98        3PX        -0.00378   0.00215  -0.00088   0.00001   0.00327
  99        3PY         0.00299  -0.00501  -0.00350   0.00003  -0.00215
 100        3PZ         0.00000   0.00000   0.00004   0.00445   0.00000
 101 9   H  1S         -0.17584  -0.12668  -0.04759   0.00052   0.15183
 102        2S         -0.14404  -0.12394  -0.06391   0.00070   0.16535
 103        3PX        -0.00339  -0.00127   0.00215  -0.00002   0.00313
 104        3PY        -0.00582  -0.00380  -0.00253   0.00003   0.00249
 105        3PZ         0.00000   0.00000   0.00003   0.00334   0.00000
 106 10  H  1S         -0.13725   0.15159  -0.10240   0.00095  -0.14728
 107        2S         -0.10523   0.13457  -0.10185   0.00093  -0.14598
 108        3PX        -0.00353   0.00246   0.00128  -0.00001  -0.00426
 109        3PY         0.00442  -0.00462   0.00436  -0.00004   0.00210
 110        3PZ         0.00000   0.00000   0.00003   0.00318   0.00000
 111 11  C  1S         -0.03938  -0.00180  -0.06570   0.00066   0.00655
 112        2S          0.08157   0.00432   0.14163  -0.00143  -0.01418
 113        2PX        -0.07076  -0.00337  -0.04735   0.00069  -0.00616
[...]
   R12        2.05329   0.00000   0.00000   0.00000   0.00000   2.05329
   R13        2.20064   0.00000   0.00000   0.00000   0.00000   2.20064
   R14        1.90731  -0.00001   0.00000  -0.00009  -0.00009   1.90722
   R15        1.90732  -0.00001   0.00000  -0.00010  -0.00010   1.90722
    A1        2.10501   0.00000   0.00000   0.00005   0.00005   2.10506
    A2        2.08524   0.00000   0.00000  -0.00002  -0.00002   2.08522
    A3        2.09293   0.00000   0.00000  -0.00003  -0.00003   2.09290
    A4        2.07399   0.00000   0.00000  -0.00003  -0.00003   2.07396
    A5        2.10466  -0.00001   0.00000  -0.00005  -0.00005   2.10461
    A6        2.10453   0.00001   0.00000   0.00008   0.00008   2.10461
    A7        2.10504   0.00000   0.00000   0.00002   0.00002   2.10506
    A8        2.08505   0.00002   0.00000   0.00017   0.00017   2.08522
    A9        2.09309  -0.00002   0.00000  -0.00018  -0.00018   2.09290
   A10        2.10640   0.00000   0.00000   0.00001   0.00001   2.10641
   A11        2.09112  -0.00001   0.00000  -0.00008  -0.00008   2.09104
   A12        2.08566   0.00001   0.00000   0.00007   0.00007   2.08572
   A13        2.06947   0.00001   0.00000  -0.00001  -0.00001   2.06946
   A14        2.10646  -0.00001   0.00000   0.00000   0.00000   2.10646
   A15        2.10645   0.00001   0.00000   0.00002   0.00002   2.10646
   A16        2.10645  -0.00001   0.00000  -0.00003  -0.00003   2.10641
   A17        2.09107   0.00000   0.00000  -0.00002  -0.00002   2.09104
   A18        2.08567   0.00001   0.00000   0.00006   0.00006   2.08572
   A19        2.03983   0.00003   0.00000   0.00083   0.00083   2.04066
   A20        2.03992   0.00002   0.00000   0.00074   0.00074   2.04066
   A21        1.98138  -0.00002   0.00000   0.00060   0.00060   1.98198
   A22        3.14142   0.00002   0.00000   0.00017   0.00017   3.14159
   A23        3.14324   0.00000   0.00000   0.00002   0.00002   3.14326
    D1       -0.00122   0.00000   0.00000   0.00006   0.00006  -0.00116
    D2        3.13813   0.00000   0.00000   0.00011   0.00011   3.13824
    D3       -3.14018   0.00000   0.00000   0.00007   0.00007  -3.14011
    D4       -0.00083   0.00000   0.00000   0.00013   0.00013  -0.00070
    D5        0.00062   0.00000   0.00000  -0.00006  -0.00006   0.00056
    D6        3.13817   0.00000   0.00000  -0.00007  -0.00007   3.13810
    D7        3.13957   0.00000   0.00000  -0.00007  -0.00007   3.13949
    D8       -0.00607   0.00000   0.00000  -0.00008  -0.00008  -0.00615
    D9        0.00114   0.00000   0.00000   0.00003   0.00003   0.00116
   D10        3.14000   0.00000   0.00000   0.00011   0.00011   3.14011
   D11       -3.13821   0.00000   0.00000  -0.00003  -0.00003  -3.13824
   D12        0.00065   0.00000   0.00000   0.00005   0.00005   0.00070
   D13       -0.00045   0.00000   0.00000  -0.00011  -0.00011  -0.00056
   D14       -3.13794   0.00000   0.00000  -0.00016  -0.00016  -3.13810
   D15       -3.13930   0.00000   0.00000  -0.00019  -0.00019  -3.13949
   D16        0.00639   0.00000   0.00000  -0.00024  -0.00024   0.00615
   D17       -0.00017   0.00000   0.00000   0.00011   0.00011  -0.00006
   D18       -3.09903   0.00000   0.00000  -0.00009  -0.00009  -3.09912
   D19        3.13734   0.00000   0.00000   0.00016   0.00016   3.13749
   D20        0.03848   0.00000   0.00000  -0.00004  -0.00004   0.03844
   D21        0.00009   0.00000   0.00000  -0.00003  -0.00003   0.00006
   D22       -3.13747   0.00000   0.00000  -0.00002  -0.00002  -3.13749
   D23        3.09894   0.00000   0.00000   0.00017   0.00017   3.09912
   D24       -0.03862   0.00000   0.00000   0.00018   0.00018  -0.03844
   D25       -2.80881  -0.00001   0.00000  -0.00123  -0.00123  -2.81004
   D26       -0.37698   0.00002   0.00000   0.00199   0.00199  -0.37499
   D27        0.37642  -0.00001   0.00000  -0.00143  -0.00143   0.37499
   D28        2.80826   0.00002   0.00000   0.00179   0.00179   2.81004
         Item               Value     Threshold  Converged?
 Maximum Force            0.000057     0.000450     YES
 RMS     Force            0.000013     0.000300     YES
 Maximum Displacement     0.001955     0.001800     NO 
 RMS     Displacement     0.000401     0.001200     YES
 Predicted change in Energy=-8.975509D-08
 GradGradGradGradGradGradGradGradGradGradGradGradGradGradGradGradGradGrad

 1\1\GINC-NODE46\Freq\RB3LYP\6-31G(d,p)\C7H6N2\DULIKAI\11-Dec-2013\0\\#
 N Geom=AllCheck Guess=TCheck SCRF=Check GenChk RB3LYP/6-31G(d,p) Freq\
 \Title Card Required\\0,1\C,-0.3000536642,1.4194671604,0.1006664615\C,
 1.1014424289,1.3569172036,-0.0002672298\C,1.8263643367,2.5554015894,-0
 .1295233961\C,1.1718695366,3.7766815572,-0.1556451765\C,-0.2321007933,
 3.84256764,-0.0538679623\C,-0.9556314033,2.6402664222,0.0747586361\H,-
 0.869462093,0.5015664777,0.2020644335\H,2.9079380378,2.519213716,-0.20
 66636687\H,1.7444317014,4.6942832726,-0.2593931382\H,-2.0390389761,2.6
 73278096,0.1504836036\C,1.777669925,0.0974622926,0.0307528789\N,2.3283
 146341,-0.9283202323,0.0569740963\N,-0.8892380022,5.0572428463,-0.1302
 314782\H,-1.8293096794,5.0911691091,0.235571699\H,-0.346855909,5.88320
 51592,0.075469631\\Version=AM64L-G09RevB.01\State=1-A\HF=-379.8620994\
 RMSD=2.360e-09\RMSF=2.526e-05\ZeroPoint=0.1159298\Thermal=0.1234953\Di
 pole=-1.2237459,2.3532423,0.3078336\DipoleDeriv=0.3098264,-0.1816531,-
 0.0151131,-0.137661,0.2311259,-0.0130389,-0.019687,-0.0039786,-0.05529
 09,-0.208493,0.1329059,0.0055501,0.1328592,-0.3831732,0.0179992,0.0065
 597,0.0160658,0.0019558,0.1092051,-0.0033569,-0.0083447,-0.0483542,0.4
 309677,-0.0307174,-0.0092329,-0.0293452,-0.0548251,-0.2807902,0.584273
 2,-0.037323,0.1370702,-0.1925223,-0.0147919,0.0019061,-0.0618403,-0.17
 41302,0.4182895,-0.7345369,0.0468348,-0.7300023,1.3764379,-0.0549775,0
 .0699625,-0.0982777,0.1825442,0.1178019,-0.126737,-0.0051707,0.3239887
 ,-0.5865954,0.0052459,-0.0282865,0.022012,-0.1790583,0.0436474,-0.0542
 504,0.0090921,-0.0591221,-0.0163569,0.0118666,0.0094143,0.0129417,0.11
 15995,-0.0508688,0.003657,0.0123033,0.0083211,0.0775425,0.0008275,0.01
 07676,0.0019461,0.1122075,0.0289003,-0.0499756,0.0091616,-0.0585412,-0
 .0883777,0.0157972,0.0088411,0.0123663,0.1168465,-0.1021818,0.0292107,
 0.0163013,0.038171,0.0429379,0.0015415,0.0185688,0.0013605,0.1165607,0
 .1818596,-0.3216751,0.0188542,-0.3217678,0.6088932,-0.0064797,0.018168
 8,-0.0052264,0.1501448,-0.3795543,0.1487954,-0.0071434,0.1487834,-0.57
 69357,0.0036208,-0.0074215,0.0041431,-0.3473839,-0.4836091,0.6806904,-
 0.0935954,0.6392208,-1.2894601,0.0849285,-0.2984945,0.4685293,-0.55636
 56,0.1965066,-0.0931043,0.0514416,-0.0457791,0.1428694,0.007397,0.1572
 36,-0.1376875,0.2789246,0.0994603,-0.0142436,-0.0028486,-0.0271867,0.2
 226468,-0.0292187,0.0616976,-0.2030091,0.2962703\Polar=93.1434414,-25.
 992969,127.5259473,-3.3154514,-3.71678,30.6526682\PG=C01 [X(C7H6N2)]\N
 Imag=0\\0.67545674,0.01844833,0.74330103,-0.04202820,-0.04003299,0.137
 74594,-0.30945746,-0.02707088,0.02016717,0.64663687,0.02247299,-0.1126
 2940,0.00157189,-0.01922931,0.66942991,0.01715033,0.00550000,-0.061830
 62,-0.03730843,-0.03299899,0.13276503,-0.03243427,-0.02513231,0.004818
 39,-0.17536854,-0.11604077,0.01576356,0.74155628,-0.06879549,0.0301964
 1,0.00394103,-0.06646651,-0.24586581,0.01676730,-0.02562060,0.67762711
 ,0.00727397,0.00052247,0.00868544,0.01288955,0.02042890,-0.06248317,-0
 .04348730,-0.03229822,0.13729794,-0.04174518,0.02047716,0.00153326,0.0
 5192861,0.02318371,-0.00472243,-0.17972299,0.06994344,0.00481804,0.669
 20669,0.02867233,-0.01732589,-0.00141320,-0.02234343,-0.05866276,0.005
 75629,0.13092470,-0.31498663,0.00642510,0.00416863,0.75011993,0.001398
 09,-0.00103880,-0.00487124,-0.00250228,0.00182358,0.00757431,0.0011107
 6,0.01209395,-0.05369420,-0.04138477,-0.04119856,0.12298367,0.06756728
 ,-0.02428416,-0.00355212,-0.05086190,-0.03326444,0.00536151,-0.0228095
 9,0.08200375,-0.00273187,-0.30042696,-0.03998629,0.02045799,0.69358817
 ,0.02184634,-0.06099560,0.00147513,-0.03314692,-0.00660293,0.00279219,
 0.03565769,0.02895296,-0.00480625,0.02563875,-0.12700897,0.00102616,-0
 .01805146,0.71700264,-0.00616995,0.00640199,0.00067235,0.00598018,0.00
 163653,-0.00592227,-0.00121273,-0.00768499,0.00110745,0.01777304,0.007
 13910,-0.06724793,-0.04203513,-0.02705402,0.16687312,-0.18134434,0.132
 04017,0.00167457,-0.02434795,0.02847968,0.00062019,-0.00214166,0.00225
 970,-0.00032962,-0.02201761,-0.02559766,0.00365356,-0.18730469,-0.1156
 2260,0.01511617,0.73138974,0.07087603,-0.31315229,0.01110575,0.0740453
 9,0.01740848,-0.00624160,-0.00585959,-0.05680565,0.00362194,-0.0570180
 3,0.03309516,0.00287830,-0.04991741,-0.24010739,0.01334598,-0.03683851
 ,0.68837025,0.00452429,0.00705295,-0.05371488,-0.00144427,-0.00259946,
 0.00777698,0.00016540,0.00256651,-0.00500094,0.00567357,0.00055605,0.0
 0693414,0.01279366,0.01878090,-0.06744528,-0.04276891,-0.03382882,0.12
 254211,-0.13837862,-0.12573585,0.01569626,-0.01149255,-0.02716211,0.00
 282704,-0.00569473,0.00201315,0.00070648,-0.00030543,0.00078813,-0.000
 03841,-0.00126344,0.00341312,0.00037834,0.01169877,0.01413448,-0.00155
 876,0.14329336,-0.12696348,-0.26297816,0.02390351,0.00331103,0.0047745
 4,-0.00034550,0.00092217,0.00108071,0.00021188,0.00073896,0.00015667,-
 0.00009626,0.00386873,-0.00250476,0.00045650,-0.01614414,-0.01763540,0
 .00259144,0.13489819,0.27613287,0.01581752,0.02385632,-0.03978509,0.00
 083715,0.00195919,0.00299548,0.00076082,0.00013614,0.00538244,-0.00009
 560,-0.00009573,-0.00043628,0.00050043,0.00040356,0.00799277,0.0003513
 0,0.00014648,0.00324309,-0.01747831,-0.02608355,0.02870254,0.00033868,
 -0.00308805,0.00056865,-0.01125689,0.00315910,0.00086374,-0.34237318,0
 .00855435,0.02190473,-0.00959746,-0.00198681,0.00104949,0.00120575,0.0
 0221551,0.00035895,0.00072476,0.00005980,-0.00010084,-0.00060532,0.000
 18385,0.00007473,0.36098179,-0.00199922,-0.00492676,0.00080342,-0.0273
 2743,0.00453641,0.00193461,0.00978226,-0.06004185,0.00065114,0.0283219
 0,0.00358353,-0.00205878,0.00178770,-0.00495928,0.00081684,0.00010356,
 -0.00086546,-0.00000122,-0.00148665,0.00026699,0.00013425,-0.00972345,
 0.05956307,0.00050568,0.00090016,0.00535155,0.00279843,-0.00026256,0.0
 0299259,0.02176001,0.00073362,-0.03871479,-0.00070377,0.00009335,0.003
 32412,0.00037620,0.00061069,0.00798154,-0.00007332,0.00005515,-0.00044
 424,0.00018200,0.00001038,0.00057497,-0.02403015,-0.00137146,0.0275758
 1,-0.00103706,0.00107757,-0.00003661,-0.00043532,0.00324976,0.00043083
 ,0.01175809,0.01414040,-0.00172383,-0.13810959,-0.12394058,0.01644532,
 -0.01146054,-0.02866434,0.00283893,-0.00548507,0.00188976,0.00065332,0
 .00009680,-0.00009938,-0.00006436,0.00086321,-0.00030475,-0.00038118,0
 .14268624,0.00065033,0.00019971,-0.00007530,0.00400672,-0.00217169,0.0
 0031639,-0.01698395,-0.01981310,0.00269886,-0.12406332,-0.25496870,0.0
 2379260,0.00321039,0.00189565,-0.00013580,0.00083085,0.00130214,0.0001
 8094,-0.00010195,-0.00002644,-0.00005306,0.00009220,0.00099332,-0.0003
 7776,0.13318448,0.27115939,0.00011139,-0.00017024,-0.00034071,0.000310
 13,0.00025248,0.00718890,0.00018028,0.00017172,0.00127837,0.01658164,0
 .02429286,-0.03476081,0.00063905,0.00213030,0.00316501,0.00075875,0.00
 018497,0.00492506,-0.00007462,-0.00005411,-0.00092513,-0.00038942,-0.0
 0031137,-0.00431689,-0.01820233,-0.02623022,0.02596834,-0.01147611,-0.
 00153083,0.00099558,0.00169276,0.00258362,0.00019817,0.00061974,-0.000
 47024,-0.00003726,0.00044617,-0.00311775,0.00053342,-0.01394599,0.0049
 1979,0.00101109,-0.33479265,0.00633253,0.02145199,0.00087654,0.0000885
 4,-0.00036467,-0.00007784,0.00001488,-0.00006551,-0.00070783,0.0000898
 3,0.00003923,0.35598229,0.02962141,0.00334037,-0.00224125,0.00184015,-
 0.00429330,0.00054816,-0.00002167,-0.00145825,0.00009280,-0.00206880,-
 0.00461348,0.00077392,-0.02695486,0.00442814,0.00201185,0.00638543,-0.
 05956643,0.00093919,-0.00031246,0.00098322,-0.00032343,0.00001660,0.00
 014772,-0.00007644,-0.00149084,0.00023176,0.00011698,-0.00820203,0.059
 24090,-0.00076637,0.00002261,0.00135639,0.00038506,0.00048664,0.007178
 01,-0.00008084,-0.00001078,-0.00033932,0.00037430,0.00086635,0.0049116
 4,0.00321816,-0.00026956,0.00311429,0.02095642,0.00111346,-0.03346561,
 -0.00037809,-0.00034598,-0.00431815,-0.00005878,-0.00006824,-0.0009243
 5,0.00014375,0.00000178,0.00004723,-0.02336865,-0.00131603,0.02458266,
 -0.02448922,0.04077146,-0.00084690,-0.12953008,0.08442897,0.00025501,0
 .01563818,-0.00031894,-0.00123992,0.00208764,-0.00594481,0.00062610,-0
 .00398257,0.00169403,-0.00013533,-0.00598340,-0.00453307,0.00114353,0.
 00116621,0.00036683,-0.00038398,0.00020359,-0.00121555,-0.00019322,0.0
 0064996,-0.00092724,0.00006413,-0.00059128,0.00153582,0.00005062,0.441
 29623,0.02634516,-0.01131827,-0.00128941,0.08442207,-0.24127999,0.0058
 2490,0.01410597,-0.05124696,0.00214562,-0.00987143,0.00103886,0.001225
 71,0.00174509,-0.00619599,0.00068264,-0.00056370,0.00907230,0.00002776
 ,-0.00185815,0.00074422,-0.00016731,0.00100839,0.00170383,-0.00043122,
 0.00070672,-0.00099148,0.00006255,-0.00009730,0.00024875,0.00007076,-0
 .60289460,1.24057173,0.00004196,-0.00235880,-0.00093675,0.00018163,0.0
 0595582,-0.05333764,-0.00214160,0.00324570,-0.00112890,0.00099863,0.00
 076182,0.00640098,0.00012477,0.00019221,-0.00094627,0.00096652,0.00012
 600,0.00644530,-0.00024322,-0.00032073,-0.00365606,-0.00034349,-0.0002
 5900,-0.00365230,-0.00000983,0.00019498,0.00104230,0.00012878,-0.00006
 917,0.00104376,0.01308335,-0.03036611,0.08892272,0.00467414,-0.0036022
 1,0.00002065,0.00924598,0.02081080,-0.00085691,-0.00495492,-0.00415661
 ,0.00077286,-0.00094309,0.00200202,-0.00008633,0.00158255,-0.00157206,
 0.00015382,0.00070844,0.00185056,-0.00020932,-0.00006138,-0.00019798,0
 .00004542,0.00035996,0.00046471,-0.00002970,-0.00025082,0.00031430,-0.
 00001474,-0.00000641,-0.00012765,-0.00001286,-0.29830607,0.48922343,-0
 .01274187,0.28884905,-0.01055244,0.00023541,0.00089413,0.02080727,-0.0
 1836879,0.00070461,0.00279547,0.00981029,-0.00070542,0.00293656,-0.001
 86289,-0.00023808,-0.00160429,0.00365146,-0.00039601,0.00089603,-0.003
 50646,0.00001255,0.00074516,0.00018388,-0.00003497,-0.00047780,-0.0002
 3578,0.00008157,0.00003395,-0.00013199,-0.00002162,0.00015023,-0.00037
 556,-0.00001926,0.48923386,-0.94705656,0.02307197,-0.50646688,0.960460
 05,0.00049075,0.00036755,0.00185020,-0.00083114,0.00065794,0.01601309,
 0.00032354,-0.00021859,0.00190035,-0.00021070,-0.00009057,-0.00098985,
 -0.00000827,-0.00009201,0.00019366,-0.00017785,0.00003890,-0.00099966,
 -0.00001425,0.00003147,0.00040819,0.00003292,0.00000938,0.00040591,-0.
 00000944,-0.00003443,-0.00030498,-0.00003042,0.00001632,-0.00030582,-0
 .01274753,0.02308191,-0.03954202,0.01320886,-0.02385582,0.02127264,-0.
 00760531,-0.00332665,0.00201884,0.00263756,0.00787642,-0.00067719,-0.0
 0285137,-0.01254051,0.00082052,-0.03433778,0.05098308,-0.00161933,-0.1
 6959511,0.08345990,-0.00287971,0.01862958,-0.01457086,0.00061731,0.000
 75734,-0.00110378,-0.00003298,-0.00070248,0.00132347,-0.00007940,0.002
 06305,0.00058223,0.00003421,0.00163914,-0.00102055,-0.00105063,0.00204
 848,-0.00258141,-0.00008100,-0.00100855,0.00173351,-0.00001929,0.76893
 521,-0.00912451,0.00718347,0.00055828,0.00750742,-0.00720133,-0.000341
 60,-0.00624578,0.00243731,-0.00011696,0.01950274,-0.00561634,-0.000131
 16,0.08756362,-0.28407511,0.02248844,0.01662476,-0.05730791,0.00443643
 ,0.00039649,-0.00087254,0.00012434,-0.00011438,0.00056793,0.00006985,-
 0.00120767,0.00200017,0.00046665,0.00081149,0.00234405,-0.00035653,-0.
 00236174,0.00508399,-0.00007832,0.00160536,-0.00307147,0.00007302,0.05
 678988,0.72430592,0.00225091,-0.00294818,0.00459030,-0.00251707,0.0030
 9807,-0.00101799,0.00306141,-0.00123571,0.00457329,-0.00321013,-0.0026
 8691,0.00856069,0.01745544,-0.01558430,-0.04019499,0.00080622,0.009623
 98,0.00727017,0.00008710,-0.00002519,0.00004099,0.00010981,-0.00036028
 ,0.00006117,-0.00060780,-0.00030467,-0.00267447,-0.00021661,0.00005332
 ,-0.00259628,0.00100626,-0.00211480,-0.00046063,-0.00065312,0.00125995
 ,0.00010243,-0.12356122,0.08875608,0.10776024,-0.00111199,0.00081051,-
 0.00094639,0.00088551,-0.00098246,0.00000387,-0.00109736,0.00014838,-0
 .00002599,0.00243282,0.00254724,0.00065484,-0.01671955,0.00301069,0.00
 546323,0.00225371,-0.00401207,-0.00080652,0.00002230,-0.00006835,0.000
 05673,-0.00005284,0.00024771,-0.00005163,0.00026791,-0.00007525,0.0000
 7875,0.00009649,0.00059168,0.00073733,-0.00032516,0.00072671,0.0001714
 3,0.00020084,-0.00040240,-0.00003197,-0.39363666,0.00270501,0.13726909
 ,0.41880235,-0.00011333,-0.00019360,0.00015027,-0.00036610,-0.00018149
 ,-0.00007748,0.00141758,0.00117303,0.00025104,0.00096348,-0.00596399,0
 .00020200,0.03271279,0.00321357,-0.01297653,0.00201811,0.00163339,0.00
 021233,-0.00000993,0.00002592,-0.00000944,0.00015314,-0.00038883,0.000
 00947,0.00022110,0.00017159,-0.00007310,-0.00146758,-0.00081305,-0.000
 01398,-0.00016770,0.00004794,0.00004827,0.00001419,-0.00001361,-0.0000
 0884,0.00294075,-0.06972572,-0.00907063,-0.01034978,0.06617064,0.00004
 710,0.00016857,-0.00053297,-0.00008160,-0.00121890,0.00011741,-0.00075
 683,0.00157053,0.00179071,0.00139694,0.00052590,0.00224739,-0.01137530
 ,0.00724118,-0.00405276,-0.00059422,-0.00107136,-0.00070486,-0.0000064
 1,-0.00000732,0.00004704,-0.00006465,0.00008190,-0.00026687,-0.0000083
 6,0.00001246,-0.00062742,-0.00013032,-0.00043380,0.00030341,-0.0003442
 3,0.00054665,-0.00011080,0.00019142,-0.00034254,0.00000037,0.17380205,
 -0.01443814,-0.06284722,-0.15052733,0.00753946,0.06546033,0.00104273,0
 .00014575,-0.00008314,-0.00027660,0.00043402,0.00009072,-0.00012367,-0
 .00069427,0.00038965,0.00110414,0.00283119,-0.00029846,0.01442660,0.01
 520155,0.00335909,-0.00198762,0.00356099,-0.00013446,-0.00010986,0.000
 19883,-0.00002422,-0.00001174,0.00001083,-0.00001446,-0.00089903,-0.00
 080963,-0.00011645,0.00024498,0.00020778,-0.00014942,0.00011748,-0.000
 41696,-0.00013607,-0.00008972,0.00017177,0.00002478,-0.18697310,-0.174
 45270,-0.03128028,-0.01201838,-0.02796672,-0.01154826,0.18555378,-0.00
 138445,-0.00093642,0.00064875,0.00001052,0.00110815,-0.00013929,0.0002
 9883,-0.00105957,0.00087709,-0.00285377,0.00301551,0.00094541,-0.01882
 916,-0.02669438,-0.00673252,0.00512833,-0.00193472,-0.00092755,0.00027
 838,-0.00033172,0.00000721,-0.00005246,0.00005516,-0.00004479,0.001203
 82,0.00014967,-0.00081788,-0.00010518,0.00015516,-0.00016124,0.0003326
 5,-0.00042237,-0.00014463,-0.00016198,0.00028203,0.00002376,-0.1705454
 6,-0.31605241,-0.06846074,0.00510237,0.00484421,-0.00017457,0.18157756
 ,0.33782167,-0.00064748,0.00175640,0.00176009,0.00113548,-0.00079113,-
 0.00001013,-0.00026487,0.00022180,-0.00065469,0.00117795,-0.00093185,-
 0.00093663,-0.00122452,0.01315383,-0.00529069,-0.00095980,-0.00109912,
 0.00263862,-0.00008516,0.00007344,-0.00026679,0.00002432,-0.00000119,0
 .00005177,0.00053159,0.00001324,0.00033517,-0.00014481,-0.00009243,-0.
 00058787,-0.00033789,0.00070034,-0.00008370,0.00021185,-0.00041106,-0.
 00000449,-0.04729217,-0.10151039,-0.02316770,0.00795456,0.01381715,-0.
 00082375,0.03992096,0.07510099,0.02704079\\0.00001245,-0.00001460,0.00
 000237,-0.00005120,-0.00001803,0.00000108,0.00000540,0.00007756,-0.000
 01013,0.00005197,-0.00003896,-0.00000048,-0.00001526,-0.00004685,0.000
 02398,0.00000932,0.00001520,-0.00000042,0.00000539,0.00000498,-0.00000
 445,-0.00000385,-0.00001708,0.00000723,-0.00000848,-0.00000138,-0.0000
 0378,0.00000253,0.00000706,0.00000159,0.00002815,-0.00001129,0.0000009
 5,-0.00000611,-0.00000385,-0.00000072,-0.00004313,0.00006355,-0.000054
 98,-0.00000237,-0.00001656,0.00001828,0.00001518,0.00000023,0.00001949
 \\\@


 ACHIEVEMENT--  THE MAN WHO ROWS THE BOAT GENERALLY 
                DOESN'T HAVE TIME TO ROCK IT.

                   -- FROM THE BACK OF A SUGAR PACKET
 Job cpu time:  0 days  0 hours 17 minutes 30.7 seconds.
 File lengths (MBytes):  RWF=     53 Int=      0 D2E=      0 Chk=      4 Scr=      1
 Normal termination of Gaussian 09 at Wed Dec 11 11:48:08 2013.
