 Entering Gaussian System, Link 0=g09
 Input=a.gjf
 Output=a.log
 Initial command:
 /opt/g09_D01_em64t/g09/l1.exe "/tmp/Gau-8467.inp" -scrdir="/tmp/"
 Entering Link 1 = /opt/g09_D01_em64t/g09/l1.exe PID=      8468.
  
 Copyright (c) 1988,1990,1992,1993,1995,1998,2003,2009,2013,
            Gaussian, Inc.  All Rights Reserved.
  
 This is part of the Gaussian(R) 09 program.  It is based on
 the Gaussian(R) 03 system (copyright 2003, Gaussian, Inc.),
 the Gaussian(R) 98 system (copyright 1998, Gaussian, Inc.),
 the Gaussian(R) 94 system (copyright 1995, Gaussian, Inc.),
 the Gaussian 92(TM) system (copyright 1992, Gaussian, Inc.),
 the Gaussian 90(TM) system (copyright 1990, Gaussian, Inc.),
 the Gaussian 88(TM) system (copyright 1988, Gaussian, Inc.),
 the Gaussian 86(TM) system (copyright 1986, Carnegie Mellon
 University), and the Gaussian 82(TM) system (copyright 1983,
 Carnegie Mellon University). Gaussian is a federally registered
 trademark of Gaussian, Inc.
  
 This software contains proprietary and confidential information,
 including trade secrets, belonging to Gaussian, Inc.
  
 This software is provided under written license and may be
 used, copied, transmitted, or stored only in accord with that
 written license.
  
 The following legend is applicable only to US Government
 contracts under FAR:
  
                    RESTRICTED RIGHTS LEGEND
  
 Use, reproduction and disclosure by the US Government is
 subject to restrictions as set forth in subparagraphs (a)
 and (c) of the Commercial Computer Software - Restricted
 Rights clause in FAR 52.227-19.
  
 Gaussian, Inc.
 340 Quinnipiac St., Bldg. 40, Wallingford CT 06492
  
  
 ---------------------------------------------------------------
 Warning -- This program may not be used in any manner that
 competes with the business of Gaussian, Inc. or will provide
 assistance to any competitor of Gaussian, Inc.  The licensee
 of this program is prohibited from giving any competitor of
 Gaussian, Inc. access to this program.  By using this program,
 the user acknowledges that Gaussian, Inc. is engaged in the
 business of creating and licensing software in the field of
 computational chemistry and represents and warrants to the
 licensee that it is not a competitor of Gaussian, Inc. and that
 it will not use this program in any manner prohibited above.
 ---------------------------------------------------------------
  

 Cite this work as:
 Gaussian 09, Revision D.01,
 M. J. Frisch, G. W. Trucks, H. B. Schlegel, G. E. Scuseria, 
 M. A. Robb, J. R. Cheeseman, G. Scalmani, V. Barone, B. Mennucci, 
 G. A. Petersson, H. Nakatsuji, M. Caricato, X. Li, H. P. Hratchian, 
 A. F. Izmaylov, J. Bloino, G. Zheng, J. L. Sonnenberg, M. Hada, 
 M. Ehara, K. Toyota, R. Fukuda, J. Hasegawa, M. Ishida, T. Nakajima, 
 Y. Honda, O. Kitao, H. Nakai, T. Vreven, J. A. Montgomery, Jr., 
 J. E. Peralta, F. Ogliaro, M. Bearpark, J. J. Heyd, E. Brothers, 
 K. N. Kudin, V. N. Staroverov, T. Keith, R. Kobayashi, J. Normand, 
 K. Raghavachari, A. Rendell, J. C. Burant, S. S. Iyengar, J. Tomasi, 
 M. Cossi, N. Rega, J. M. Millam, M. Klene, J. E. Knox, J. B. Cross, 
 V. Bakken, C. Adamo, J. Jaramillo, R. Gomperts, R. E. Stratmann, 
 O. Yazyev, A. J. Austin, R. Cammi, C. Pomelli, J. W. Ochterski, 
 R. L. Martin, K. Morokuma, V. G. Zakrzewski, G. A. Voth, 
 P. Salvador, J. J. Dannenberg, S. Dapprich, A. D. Daniels, 
 O. Farkas, J. B. Foresman, J. V. Ortiz, J. Cioslowski, 
 and D. J. Fox, Gaussian, Inc., Wallingford CT, 2013.
 
 ******************************************
 Gaussian 09:  EM64L-G09RevD.01 24-Apr-2013
                25-Jul-2014 
 ******************************************
 %chk=a.chk
 %mem=2GB
 %nproc=2
 Will use up to    2 processors via shared memory.
 ----------------------------------------------------------------------
 # td(singlet, root=3, nstates=4) cam-b3lyp/6-31G* scf=(xqc, maxcycle=1
 0000) nosymm pop=full density=current
 ----------------------------------------------------------------------
 1/30=1,38=1/1;
 2/12=2,15=1,17=6,18=5,40=1/2;
 3/5=1,6=6,7=1,11=9,16=1,25=1,30=1,71=1,74=-40/1,2,8,3;
 4//1;
 5/5=2,7=10000,8=3,13=1,38=5/2,8;
 8/6=1,10=2,107=3,108=4/1;
 9/8=3,15=1,41=4,42=1,48=1,70=2/14;
 10/5=4,13=10,31=1/2;
 6/7=3,22=-1/1;
 99/5=1,9=1/99;
 --------------------
 [0] [0] iop(9/40=20)
 --------------------
 Symbolic Z-matrix:
 Charge =  1 Multiplicity = 1
 C                     0.67809  -0.01676  -0.00119 
 H                     1.00863   0.96736   0.05893 
 H                     1.37295  -0.80459  -0.121 
 N                    -0.58739  -0.01696   0.02308 
 H                    -1.08647   0.97988  -0.2204 
 H                    -1.3614   -0.70748  -0.0248 
 
                          Input orientation:                          
 ---------------------------------------------------------------------
 Center     Atomic      Atomic             Coordinates (Angstroms)
 Number     Number       Type             X           Y           Z
 ---------------------------------------------------------------------
      1          6           0        0.678094   -0.016756   -0.001189
      2          1           0        1.008626    0.967356    0.058928
      3          1           0        1.372953   -0.804594   -0.121004
      4          7           0       -0.587390   -0.016959    0.023078
      5          1           0       -1.086470    0.979878   -0.220402
      6          1           0       -1.361400   -0.707485   -0.024800
 ---------------------------------------------------------------------
                    Distance matrix (angstroms):
                    1          2          3          4          5
     1  C    0.000000
     2  H    1.039876   0.000000
     3  H    1.057295   1.817943   0.000000
     4  N    1.265717   1.875481   2.117563   0.000000
     5  H    2.038387   2.113672   3.040227   1.141073   0.000000
     6  H    2.153416   2.903296   2.737767   1.038369   1.720768
                    6
     6  H    0.000000
 Symmetry turned off by external request.
 Stoichiometry    CH4N(1+)
 Framework group  C1[X(CH4N)]
 Deg. of freedom    12
 Full point group                 C1      NOp   1
 Rotational constants (GHZ):    160.6237761     30.7981336     26.0411513
 Standard basis: 6-31G(d) (6D, 7F)
    38 basis functions,    72 primitive gaussians,    38 cartesian basis functions
     8 alpha electrons        8 beta electrons
       nuclear repulsion energy        38.5845638650 Hartrees.
 NAtoms=    6 NActive=    6 NUniq=    6 SFac= 1.00D+00 NAtFMM=   60 NAOKFM=F Big=F
 Integral buffers will be    131072 words long.
 Raffenetti 1 integral format.
 Two-electron integral symmetry is turned off.
 One-electron integrals computed using PRISM.
 NBasis=    38 RedAO= T EigKep=  6.80D-03  NBF=    38
 NBsUse=    38 1.00D-06 EigRej= -1.00D+00 NBFU=    38
 ExpMin= 1.61D-01 ExpMax= 4.17D+03 ExpMxC= 6.27D+02 IAcc=1 IRadAn=         1 AccDes= 0.00D+00
 Harris functional with IExCor=20419 and IRadAn=       1 diagonalized for initial guess.
 HarFok:  IExCor=20419 AccDes= 0.00D+00 IRadAn=         1 IDoV= 1 UseB2=F ITyADJ=14
 ICtDFT=  3500011 ScaDFX=  1.000000  1.000000  1.000000  1.000000
 FoFCou: FMM=F IPFlag=           0 FMFlag=      100000 FMFlg1=           0
         NFxFlg=           0 DoJE=T BraDBF=F KetDBF=T FulRan=T
         wScrn=  0.000000 ICntrl=     500 IOpCl=  0 I1Cent=   200000004 NGrid=           0
         NMat0=    1 NMatS0=      1 NMatT0=    0 NMatD0=    1 NMtDS0=    0 NMtDT0=    0
 Symmetry not used in FoFCou.
 Keep R1 ints in memory in canonical form, NReq=1433682.
 Requested convergence on RMS density matrix=1.00D-08 within 128 cycles.
 Requested convergence on MAX density matrix=1.00D-06.
 Requested convergence on             energy=1.00D-06.
 No special actions if energy rises.
 Integral accuracy reduced to 1.0D-05 until final iterations.
 Initial convergence to 1.0D-05 achieved.  Increase integral accuracy.
 SCF Done:  E(RCAM-B3LYP) =  -94.8897761271     A.U. after   12 cycles
            NFock= 12  Conv=0.62D-08     -V/T= 2.0101
 QCSCF skips out because SCF is already converged.
 DoSCS=F DFT=T ScalE2(SS,OS)=  1.000000  1.000000
 ExpMin= 1.61D-01 ExpMax= 4.17D+03 ExpMxC= 6.27D+02 IAcc=3 IRadAn=         5 AccDes= 0.00D+00
 HarFok:  IExCor=  205 AccDes= 0.00D+00 IRadAn=         5 IDoV=-2 UseB2=F ITyADJ=14
 ICtDFT= 12500011 ScaDFX=  1.000000  1.000000  1.000000  1.000000
 Range of M.O.s used for correlation:     3    38
 NBasis=    38 NAE=     8 NBE=     8 NFC=     2 NFV=     0
 NROrb=     36 NOA=     6 NOB=     6 NVA=    30 NVB=    30
 Keep R1, R2, and R3 ints in memory in canonical form, NReq=3749313.
    16 initial guesses have been made.
 Convergence on wavefunction:    0.000001000000000
 Iteration     1 Dimension    16 NMult     0 NNew     16
 CISAX will form    16 AO SS matrices at one time.
 New state      1 was old state      2
 New state      2 was old state      3
 New state      3 was old state      5
 New state      4 was old state      1
 Iteration     2 Dimension    24 NMult    16 NNew      8
 Iteration     3 Dimension    32 NMult    24 NNew      8
 Iteration     4 Dimension    40 NMult    32 NNew      8
 Iteration     5 Dimension    48 NMult    40 NNew      8
 Iteration     6 Dimension    56 NMult    48 NNew      8
 Iteration     7 Dimension    64 NMult    56 NNew      8
 Iteration     8 Dimension    70 NMult    64 NNew      6
 ***********************************************************************
 Excited states from <AA,BB:AA,BB> singles matrix:
 ***********************************************************************
 
 Ground to excited state transition densities written to RWF  633
 Ground to excited state transition electric dipole moments (Au):
       state          X           Y           Z        Dip. S.      Osc.
         1        -0.1946     -0.0316      0.0276      0.0396      0.0073
         2        -1.0421      0.0333     -0.0242      1.0877      0.2563
         3         0.4274     -0.1018     -0.0554      0.1961      0.0516
         4         0.3059     -0.0798     -0.1684      0.1283      0.0351
 Ground to excited state transition velocity dipole moments (Au):
       state          X           Y           Z        Dip. S.      Osc.
         1         0.0544      0.0135     -0.0081      0.0032      0.0077
         2         0.3624     -0.0106      0.0144      0.1317      0.2484
         3        -0.1710      0.0434      0.0388      0.0326      0.0551
         4        -0.1295      0.0356      0.0766      0.0239      0.0388
 Ground to excited state transition magnetic dipole moments (Au):
       state          X           Y           Z
         1        -1.3063     -0.0464     -0.0087
         2         0.4140     -0.1990      0.0195
         3         0.1725      0.3853     -0.4469
         4         0.0390     -1.4552     -0.2130
 Ground to excited state transition velocity quadrupole moments (Au):
       state          XX          YY          ZZ          XY          XZ          YZ
         1        -0.0173      0.0192      0.0136     -0.0280      0.0174     -0.1294
         2        -0.0287      0.0211      0.0998      0.0342      0.0344      0.0573
         3         0.0064      0.0457     -0.0568     -0.2969     -0.1182      0.0032
         4         0.0385      0.0271     -0.0343     -0.1426      0.2964      0.0119
 <0|del|b> * <b|rxdel|0> + <0|del|b> * <b|delr+rdel|0>
 Rotatory Strengths (R) in cgs (10**-40 erg-esu-cm/Gauss)
       state          XX          YY          ZZ    R(velocity)    E-M Angle
         1        -0.7169    -99.5112    -81.9126    -60.7136      165.39
         2         3.2421    170.6568    131.0869    101.6619       23.98
         3        -6.2788    -32.1357    -15.5677    -17.9941      105.73
         4       -77.2235    -10.3156    -38.5779    -42.0390      108.77
 1/2[<0|r|b>*<b|rxdel|0> + (<0|rxdel|b>*<b|r|0>)*]
 Rotatory Strengths (R) in cgs (10**-40 erg-esu-cm/Gauss)
       state          XX          YY          ZZ     R(length)
         1      -179.7904     -1.0361      0.1691    -60.2192
         2       305.0864      4.6853      0.3340    103.3686
         3       -52.1286     27.7278    -17.5023    -13.9677
         4        -8.4284    -82.1033    -25.3606    -38.6308
  1/2[<0|del|b>*<b|r|0> + (<0|r|b>*<b|del|0>)*] (Au)
       state          X           Y           Z        Dip. S.   Osc.(frdel)
         1        -0.0106     -0.0004     -0.0002      0.0112      0.0075
         2        -0.3777     -0.0004     -0.0003      0.3784      0.2523
         3        -0.0731     -0.0044     -0.0021      0.0796      0.0531
         4        -0.0396     -0.0028     -0.0129      0.0554      0.0369

 Excitation energies and oscillator strengths:
 
 Excited state symmetry could not be determined.
 Excited State   1:      Singlet-?Sym    7.5674 eV  163.84 nm  f=0.0073  <S**2>=0.000
       7 ->  9        -0.46112
       8 ->  9         0.53354
 
 Excited state symmetry could not be determined.
 Excited State   2:      Singlet-?Sym    9.6172 eV  128.92 nm  f=0.2563  <S**2>=0.000
       7 ->  9         0.51761
       8 ->  9         0.45301
 
 Excited state symmetry could not be determined.
 Excited State   3:      Singlet-?Sym   10.7327 eV  115.52 nm  f=0.0516  <S**2>=0.000
       6 ->  9        -0.17177
       7 -> 10         0.13309
       8 -> 10         0.66086
 This state for optimization and/or second-order correction.
 Total Energy, E(TD-HF/TD-KS) =  -94.4953555213    
 Copying the excited state density for this state as the 1-particle RhoCI density.
 
 Excited state symmetry could not be determined.
 Excited State   4:      Singlet-?Sym   11.1673 eV  111.02 nm  f=0.0351  <S**2>=0.000
       6 ->  9         0.67648
       8 -> 10         0.15741
 SavETr:  write IOETrn=   770 NScale= 10 NData=  16 NLR=1 NState=    4 LETran=      82.
          Differentiating once with respect to electric field.
                with respect to dipole field.
          Electric field/nuclear overlap derivatives assumed to be zero.
 Keep R1 ints in memory in canonical form, NReq=1410987.
          There are     1 degrees of freedom in the 1st order CPHF.  IDoFFX=0 NUNeed=     1.
 LinEq1:  Iter=  0 NonCon=     1 RMS=3.73D-02 Max=1.85D-01 NDo=     1
 AX will form     1 AO Fock derivatives at one time.
 LinEq1:  Iter=  1 NonCon=     1 RMS=1.52D-02 Max=1.28D-01 NDo=     1
 LinEq1:  Iter=  2 NonCon=     1 RMS=9.58D-03 Max=9.97D-02 NDo=     1
 LinEq1:  Iter=  3 NonCon=     1 RMS=2.64D-03 Max=1.72D-02 NDo=     1
 LinEq1:  Iter=  4 NonCon=     1 RMS=5.81D-04 Max=3.18D-03 NDo=     1
 LinEq1:  Iter=  5 NonCon=     1 RMS=1.24D-04 Max=7.80D-04 NDo=     1
 LinEq1:  Iter=  6 NonCon=     1 RMS=1.96D-05 Max=1.60D-04 NDo=     1
 LinEq1:  Iter=  7 NonCon=     1 RMS=3.01D-06 Max=1.67D-05 NDo=     1
 LinEq1:  Iter=  8 NonCon=     1 RMS=3.99D-07 Max=2.22D-06 NDo=     1
 LinEq1:  Iter=  9 NonCon=     1 RMS=7.61D-08 Max=4.18D-07 NDo=     1
 LinEq1:  Iter= 10 NonCon=     1 RMS=1.21D-08 Max=6.21D-08 NDo=     1
 LinEq1:  Iter= 11 NonCon=     1 RMS=1.61D-09 Max=5.79D-09 NDo=     1
 LinEq1:  Iter= 12 NonCon=     1 RMS=2.86D-10 Max=1.39D-09 NDo=     1
 LinEq1:  Iter= 13 NonCon=     0 RMS=3.77D-11 Max=1.71D-10 NDo=     1
 Linear equations converged to 1.000D-10 1.000D-09 after    13 iterations.
 End of Minotr F.D. properties file   721 does not exist.
 End of Minotr F.D. properties file   722 does not exist.
 End of Minotr F.D. properties file   788 does not exist.

 **********************************************************************

            Population analysis using the CI density.

 **********************************************************************

 Alpha  occ. eigenvalues --  -14.76746 -10.61440  -1.32081  -1.03106  -0.89347
 Alpha  occ. eigenvalues --   -0.86519  -0.74381  -0.70439
 Alpha virt. eigenvalues --   -0.26149  -0.14694  -0.09035  -0.03729   0.03606
 Alpha virt. eigenvalues --    0.10026   0.32857   0.33488   0.39345   0.44885
 Alpha virt. eigenvalues --    0.50465   0.56871   0.60830   0.65793   0.70309
 Alpha virt. eigenvalues --    0.76831   0.96132   1.07773   1.22148   1.30333
 Alpha virt. eigenvalues --    1.55885   1.69089   1.75232   1.96060   2.10787
 Alpha virt. eigenvalues --    2.19726   2.42495   2.60404   3.52966   3.90258
     Molecular Orbital Coefficients:
                           1         2         3         4         5
                           O         O         O         O         O
     Eigenvalues --   -14.76746 -10.61440  -1.32081  -1.03106  -0.89347
   1 1   C  1S          0.00008   0.99261  -0.11938  -0.15470   0.04494
   2        2S          0.00034   0.04938   0.23807   0.32668  -0.09591
   3        2PX        -0.00024  -0.00114  -0.15653   0.03141  -0.18223
   4        2PY        -0.00001   0.00007   0.01153   0.03436   0.29063
   5        2PZ         0.00001   0.00009   0.00179   0.00290   0.01899
   6        3S         -0.00058  -0.00933   0.08919   0.25912  -0.13051
   7        3PX         0.00028  -0.00076   0.01638   0.02405  -0.05000
   8        3PY         0.00013  -0.00004  -0.00537   0.01100   0.08198
   9        3PZ        -0.00002   0.00005  -0.00063  -0.00315   0.00577
  10        4XX        -0.00015  -0.00889   0.01529  -0.00288   0.00230
  11        4YY         0.00002  -0.00968  -0.00816   0.00875  -0.00435
  12        4ZZ         0.00001  -0.01015  -0.01638  -0.01729   0.00098
  13        4XY         0.00002  -0.00013  -0.00075  -0.00563  -0.00240
  14        4XZ         0.00000  -0.00005  -0.00061  -0.00232   0.00215
  15        4YZ         0.00000   0.00005   0.00072   0.00270  -0.00184
  16 2   H  1S         -0.00007  -0.00034   0.05017   0.13112   0.05599
  17        2S         -0.00006   0.00233   0.00328   0.02421   0.03398
  18 3   H  1S          0.00002  -0.00039   0.03343   0.11600  -0.19368
  19        2S          0.00002   0.00237  -0.01014   0.02335  -0.07698
  20 4   N  1S          0.99268  -0.00036  -0.19092   0.08197  -0.00678
  21        2S          0.03463  -0.00018   0.40065  -0.17999   0.01128
  22        2PX         0.00025  -0.00037   0.09229   0.32003   0.12457
  23        2PY         0.00002   0.00006   0.00349   0.04519   0.36968
  24        2PZ        -0.00012   0.00001  -0.01496   0.02041  -0.01545
  25        3S          0.00428   0.00121   0.39246  -0.25244   0.01792
  26        3PX        -0.00002  -0.00095   0.02063   0.13955   0.05680
  27        3PY        -0.00008  -0.00051   0.01337   0.01741   0.20242
  28        3PZ         0.00001  -0.00003  -0.01036   0.01426  -0.01022
  29        4XX        -0.00812  -0.00079   0.01258   0.00153  -0.00731
  30        4YY        -0.00827  -0.00018   0.00110  -0.01310   0.00326
  31        4ZZ        -0.00830  -0.00004  -0.01665   0.00620  -0.00156
  32        4XY         0.00002   0.00000   0.00324  -0.00560  -0.00501
  33        4XZ         0.00000   0.00000   0.00162  -0.00445   0.00034
  34        4YZ         0.00000   0.00000  -0.00319   0.00201  -0.00638
  35 5   H  1S          0.00030   0.00006   0.07720  -0.09379   0.13185
  36        2S         -0.00040   0.00001  -0.00585  -0.01789   0.04722
  37 6   H  1S          0.00030  -0.00016   0.08601  -0.17197  -0.16151
  38        2S         -0.00054  -0.00050  -0.00566  -0.02673  -0.04973
                           6         7         8         9        10
                           O         O         O         V         V
     Eigenvalues --    -0.86519  -0.74381  -0.70439  -0.26149  -0.14694
   1 1   C  1S         -0.03871  -0.00318   0.00411  -0.00678   0.00272
   2        2S          0.07123   0.00811  -0.00941   0.01752  -0.02002
   3        2PX         0.39274   0.00504   0.04360   0.00663  -0.08953
   4        2PY         0.14707   0.31537  -0.22969  -0.04944  -0.10833
   5        2PZ        -0.02296   0.21102   0.26309   0.52296  -0.05728
   6        3S          0.14729   0.01376  -0.00868   0.01267  -0.10085
   7        3PX         0.08688  -0.00760   0.01959   0.02579  -0.27836
   8        3PY         0.03564   0.15403  -0.12643  -0.07331  -0.24898
   9        3PZ        -0.00627   0.09253   0.12829   0.57823  -0.12573
  10        4XX        -0.01963  -0.01036   0.00550  -0.00217  -0.01655
  11        4YY         0.02883   0.01091  -0.00566   0.00095   0.01130
  12        4ZZ         0.00018   0.00065   0.00182  -0.00092   0.00076
  13        4XY        -0.00830   0.02555  -0.02073   0.00521   0.01810
  14        4XZ         0.00229  -0.01498  -0.02587   0.02141  -0.00534
  15        4YZ         0.00250   0.00079   0.00181   0.00148  -0.00353
  16 2   H  1S          0.17698   0.19038  -0.12620   0.01488   0.05098
  17        2S          0.09225   0.10692  -0.07218   0.04091   0.52062
  18 3   H  1S          0.11031  -0.15344   0.11504  -0.02792  -0.05266
  19        2S          0.04741  -0.08120   0.06982  -0.05746  -0.10678
  20 4   N  1S          0.01993  -0.00045  -0.01316   0.01806   0.09953
  21        2S         -0.05219   0.00389   0.03111  -0.04268  -0.18803
  22        2PX        -0.36021  -0.04433  -0.02163   0.02583   0.13717
  23        2PY         0.17430  -0.23494   0.21778  -0.05103  -0.23121
  24        2PZ        -0.04243   0.30582   0.42471  -0.38094   0.10978
  25        3S         -0.02076  -0.01829   0.06106  -0.11143  -1.19428
  26        3PX        -0.15243  -0.02018  -0.01537   0.03852   0.22974
  27        3PY         0.10833  -0.16082   0.15475  -0.05431  -0.34214
  28        3PZ        -0.02557   0.19402   0.28407  -0.45511   0.19315
  29        4XX         0.00153   0.00877  -0.00349   0.00102   0.01122
  30        4YY         0.01461  -0.00453   0.00572   0.00208   0.02674
  31        4ZZ        -0.00038  -0.00339  -0.00337   0.00305   0.01363
  32        4XY         0.00208   0.02557  -0.01853  -0.00623  -0.01753
  33        4XZ         0.00305   0.00930   0.01538   0.02992  -0.00317
  34        4YZ        -0.00430   0.00607  -0.00344  -0.00067  -0.00175
  35 5   H  1S          0.14317  -0.15463   0.09916   0.06258   0.20331
  36        2S          0.06574  -0.09346   0.07027   0.13389   1.20008
  37 6   H  1S          0.05993   0.12526  -0.09224   0.00405   0.02290
  38        2S          0.03486   0.07243  -0.05645   0.01675   0.36451
                          11        12        13        14        15
                           V         V         V         V         V
     Eigenvalues --    -0.09035  -0.03729   0.03606   0.10026   0.32857
   1 1   C  1S         -0.02318  -0.13266  -0.01205   0.06159   0.02640
   2        2S          0.05142   0.26254  -0.00109   0.02220  -0.48449
   3        2PX        -0.11121   0.17924  -0.03952   0.12605   0.73462
   4        2PY         0.12305  -0.03929  -0.40490  -0.15945   0.34261
   5        2PZ         0.02400  -0.02886  -0.05083  -0.02106   0.09801
   6        3S          0.20730   2.12814   0.21376  -2.38613  -0.42638
   7        3PX        -0.23831   0.53387  -0.43071   2.55947  -0.07590
   8        3PY         0.23187  -0.04945  -1.44228  -0.58692  -0.67014
   9        3PZ         0.05696  -0.07912  -0.08462  -0.12798  -0.16776
  10        4XX        -0.00579  -0.00959  -0.02284   0.04380   0.00655
  11        4YY        -0.00036  -0.01392   0.01557  -0.03336  -0.02817
  12        4ZZ        -0.00139   0.00525   0.00547  -0.00725  -0.03157
  13        4XY        -0.03201   0.00817   0.00047   0.00486   0.03481
  14        4XZ        -0.00050  -0.00115   0.00509  -0.00297  -0.00441
  15        4YZ         0.00234  -0.00351   0.00380  -0.00412  -0.00295
  16 2   H  1S         -0.06825  -0.07315   0.06660  -0.07313   0.11562
  17        2S         -0.50120  -1.21109   1.79957   0.64324   0.19081
  18 3   H  1S          0.05547  -0.11689  -0.04381   0.01435  -0.14622
  19        2S          0.41582  -1.63524  -1.24888  -1.11163  -0.20611
  20 4   N  1S          0.07505   0.02989   0.01524  -0.06922  -0.06282
  21        2S         -0.13019  -0.05976  -0.03802   0.07503  -0.00222
  22        2PX         0.14918  -0.03318  -0.14366   0.32259  -0.00052
  23        2PY         0.29939  -0.01699   0.25128   0.04110   0.10218
  24        2PZ        -0.01063   0.03178  -0.03374   0.01604   0.04640
  25        3S         -1.06962  -0.29394  -0.34566   2.27570   0.52679
  26        3PX         0.24571  -0.17041  -0.33429   1.70686   0.98729
  27        3PY         0.53822  -0.00019   0.71514   0.26916  -0.00459
  28        3PZ        -0.01804   0.05054  -0.01975   0.02093  -0.01696
  29        4XX         0.02684   0.01661   0.00213  -0.00637  -0.17878
  30        4YY         0.00628  -0.00870   0.00253  -0.01402   0.04289
  31        4ZZ         0.01148   0.00715   0.00291  -0.03225   0.02931
  32        4XY         0.02598  -0.01214  -0.02094  -0.01079  -0.03581
  33        4XZ        -0.00048  -0.00043  -0.00412  -0.00209   0.00822
  34        4YZ         0.00205  -0.00409   0.00286  -0.00412  -0.01115
  35 5   H  1S         -0.07127   0.05037  -0.06300   0.04284   0.16537
  36        2S         -0.29278   0.20799  -0.85194   0.16071  -0.13847
  37 6   H  1S          0.19631   0.00240  -0.00901   0.02057  -0.37882
  38        2S          1.50367   0.02771   0.41566   0.87032   0.66625
                          16        17        18        19        20
                           V         V         V         V         V
     Eigenvalues --     0.33488   0.39345   0.44885   0.50465   0.56871
   1 1   C  1S          0.00658   0.03345  -0.06101   0.01459  -0.03557
   2        2S         -0.05399   0.03542  -0.83316   0.03617  -0.06259
   3        2PX         0.03914   0.57821  -0.02176  -0.00785   0.07050
   4        2PY         0.14506  -0.35165  -0.26889   0.03613  -0.43807
   5        2PZ        -0.97213  -0.03143  -0.00188   0.30511  -0.03408
   6        3S         -0.01963  -0.58162   2.05167   0.22668  -0.42090
   7        3PX         0.04018  -1.03720   0.11578  -0.08065  -0.07603
   8        3PY        -0.18728   1.14620   1.13255  -0.16151   1.21002
   9        3PZ         1.08102   0.14474   0.04162  -0.71881   0.01163
  10        4XX         0.01082   0.07496  -0.07735   0.04508  -0.08213
  11        4YY        -0.00380   0.02356  -0.19007  -0.00025   0.00469
  12        4ZZ        -0.00739  -0.03053   0.07913  -0.01667   0.03179
  13        4XY         0.00720  -0.10583  -0.00988   0.02715   0.05450
  14        4XZ         0.04213  -0.00402   0.01763   0.03947  -0.01211
  15        4YZ        -0.00123   0.01493  -0.02434   0.00270  -0.00666
  16 2   H  1S          0.01812  -0.12303  -0.62608   0.07523  -0.02715
  17        2S         -0.00427  -0.23838  -0.79074   0.03041  -0.70208
  18 3   H  1S         -0.01746   0.55003  -0.41749   0.00586  -0.16214
  19        2S         -0.00553   0.54477   0.27687  -0.10346   0.91333
  20 4   N  1S         -0.00540  -0.02693  -0.00628  -0.00396   0.03007
  21        2S         -0.02690   0.14691  -0.19749   0.00451  -0.33501
  22        2PX         0.04073   0.08066  -0.14590   0.13519  -0.12198
  23        2PY        -0.04491  -0.11487   0.10419  -0.10479  -0.32937
  24        2PZ        -0.22478  -0.09050  -0.09039  -0.90363  -0.05846
  25        3S          0.08229  -0.53427  -0.08239  -0.09128   0.56963
  26        3PX         0.03413   0.35213  -0.06688  -0.39421   0.74281
  27        3PY         0.03989  -0.05046  -0.37689   0.12392   0.30399
  28        3PZ         0.06346   0.04190   0.07795   1.23699   0.11201
  29        4XX        -0.03102  -0.08879  -0.06876  -0.02326  -0.05142
  30        4YY         0.00023   0.03551  -0.09167  -0.01999   0.11786
  31        4ZZ        -0.00216   0.04750   0.04826   0.00684  -0.12612
  32        4XY        -0.00397   0.08979   0.02570  -0.03577  -0.06551
  33        4XZ        -0.07159  -0.00277  -0.01146  -0.02397   0.01776
  34        4YZ        -0.00203   0.01887   0.01207   0.00186  -0.05376
  35 5   H  1S          0.02707  -0.31884  -0.33813  -0.02488   0.91647
  36        2S          0.03802   0.32402   0.31851  -0.03331  -1.09322
  37 6   H  1S         -0.06554   0.26413  -0.04775  -0.18912   0.28840
  38        2S          0.05687  -0.01248  -0.17070   0.06900   0.37380
                          21        22        23        24        25
                           V         V         V         V         V
     Eigenvalues --     0.60830   0.65793   0.70309   0.76831   0.96132
   1 1   C  1S          0.03368   0.01856   0.03008   0.01602   0.00119
   2        2S         -0.30781  -0.43517   0.05264  -1.30199   0.77313
   3        2PX        -0.02588   0.11776   0.23641  -0.52253  -0.14391
   4        2PY        -0.34261   0.48042  -0.61244  -0.08196   0.08815
   5        2PZ        -0.03066   0.05655  -0.07431   0.01449  -0.00251
   6        3S          1.85385   1.89708   0.57927   2.50921  -2.68669
   7        3PX        -0.91066  -0.72971  -0.97694   1.02158   0.59646
   8        3PY         0.81321  -1.12972   1.76708   0.37104   1.02722
   9        3PZ         0.24027  -0.09536   0.18002  -0.05478   0.09571
  10        4XX         0.09582   0.12570   0.09627  -0.12944  -0.01929
  11        4YY        -0.03994  -0.11842   0.02050   0.09537   0.04020
  12        4ZZ        -0.03590  -0.01687  -0.04967  -0.13500   0.06052
  13        4XY         0.07559  -0.06857   0.09563  -0.06963  -0.10828
  14        4XZ        -0.00423  -0.01810   0.00624  -0.01761  -0.03541
  15        4YZ         0.01748  -0.00047  -0.00380   0.01825   0.02239
  16 2   H  1S          0.20894  -0.37632   0.45924   0.53853  -0.33075
  17        2S         -0.77640   0.95643  -1.23663  -1.54360   0.22784
  18 3   H  1S          0.05117   0.16091  -0.39172   0.65375   0.45292
  19        2S          0.45268  -0.92382   1.54626  -1.43690   0.56968
  20 4   N  1S         -0.02510   0.01544  -0.00209  -0.00432  -0.04482
  21        2S         -0.01094  -0.34255  -0.11511  -0.20366  -1.25684
  22        2PX         0.38358   0.71325   0.48522  -0.09947  -0.13539
  23        2PY        -0.52368  -0.07476   0.67131   0.16022   0.26481
  24        2PZ         0.23077   0.06103  -0.00336  -0.04146   0.01413
  25        3S         -0.58349   0.06528  -0.16235   0.40616   3.62370
  26        3PX        -1.66437  -1.71645  -1.18102   0.35261   0.25213
  27        3PY         0.66674   0.28958  -1.47921  -0.40924  -1.25829
  28        3PZ        -0.44052  -0.09787   0.00192   0.08589  -0.10921
  29        4XX        -0.09688  -0.14054  -0.08701  -0.05440  -0.20229
  30        4YY        -0.12395   0.00623  -0.00207   0.01161  -0.28196
  31        4ZZ         0.09410  -0.06904  -0.02334  -0.02371  -0.07566
  32        4XY        -0.13725   0.09449  -0.04027   0.02345  -0.05945
  33        4XZ         0.00303   0.02084  -0.00287   0.00993   0.02849
  34        4YZ         0.01889  -0.00675  -0.00459  -0.02326  -0.04161
  35 5   H  1S         -0.10384   0.26237  -0.02205   0.06661   0.11852
  36        2S         -0.93848  -0.81702   0.37026   0.27169  -0.13826
  37 6   H  1S         -0.68155   0.45601   0.22595   0.06711  -0.54037
  38        2S          0.31905  -1.16404  -1.28824  -0.14039  -0.69931
                          26        27        28        29        30
                           V         V         V         V         V
     Eigenvalues --     1.07773   1.22148   1.30333   1.55885   1.69089
   1 1   C  1S          0.00572   0.00031   0.00697  -0.01930  -0.02033
   2        2S          0.16041  -0.00691   0.07490  -0.07575   0.04209
   3        2PX         0.08847   0.02564   0.05920  -0.02074   0.00305
   4        2PY         0.01428   0.02640  -0.02151   0.04627  -0.16857
   5        2PZ         0.08229  -0.19324  -0.06641  -0.00388  -0.02496
   6        3S         -3.02352  -0.41290  -1.09648   0.89869   0.70021
   7        3PX         2.17247   0.35646   0.72642  -0.37149   0.10500
   8        3PY        -1.90914  -0.41315  -0.91010   0.69871   0.01109
   9        3PZ        -0.20136   0.02641  -0.04809   0.08938   0.01588
  10        4XX        -0.10292  -0.03493  -0.04965   0.08163  -0.00586
  11        4YY         0.17992  -0.01761   0.13717   0.26767   0.35204
  12        4ZZ        -0.05300   0.05279  -0.07829  -0.36460  -0.37072
  13        4XY         0.08832   0.09063  -0.01217   0.02199  -0.33414
  14        4XZ         0.16474  -0.53214  -0.21089  -0.03189  -0.10115
  15        4YZ         0.10255   0.25685  -0.67093  -0.48274   0.42996
  16 2   H  1S          0.43467   0.07622   0.21867  -0.38669  -0.12206
  17        2S          0.66400   0.13556   0.38486  -0.33790  -0.13945
  18 3   H  1S         -0.37882  -0.09583  -0.19988   0.04903  -0.56985
  19        2S         -0.88138  -0.19617  -0.35469   0.23274   0.03746
  20 4   N  1S         -0.06621  -0.00903  -0.02425  -0.00674  -0.02126
  21        2S         -1.11113  -0.11088  -0.33144  -0.09750  -0.09685
  22        2PX        -0.07474  -0.01475   0.00372  -0.01370   0.05922
  23        2PY        -0.30678  -0.03683  -0.15480   0.04646  -0.10918
  24        2PZ         0.06028  -0.14164  -0.04584   0.01024  -0.00749
  25        3S          4.37921   0.53936   1.42981  -0.16385   0.35053
  26        3PX         1.87157   0.34131   0.59123  -0.61921  -0.68531
  27        3PY         1.66742   0.33874   0.79813  -0.34795  -0.04632
  28        3PZ        -0.08081  -0.00416  -0.04526  -0.08390  -0.07688
  29        4XX        -0.20233   0.00175  -0.04232   0.00691  -0.03738
  30        4YY        -0.17384  -0.07303  -0.16807   0.48966   0.41469
  31        4ZZ        -0.10757   0.02258   0.08735  -0.55334  -0.45658
  32        4XY         0.12854  -0.02086   0.12209  -0.20106   0.35453
  33        4XZ        -0.15591   0.55085   0.22545   0.00998   0.05636
  34        4YZ         0.25633   0.31086  -0.46884   0.49285  -0.40006
  35 5   H  1S         -0.52388  -0.11957  -0.28430  -0.20409  -0.23557
  36        2S         -0.25075   0.01075  -0.14469  -0.03566  -0.10670
  37 6   H  1S          0.42265   0.10541   0.13324  -0.27460  -0.56739
  38        2S          0.23435   0.08583   0.16789  -0.22558  -0.13827
                          31        32        33        34        35
                           V         V         V         V         V
     Eigenvalues --     1.75232   1.96060   2.10787   2.19726   2.42495
   1 1   C  1S         -0.02513   0.07295   0.01322   0.00951   0.00648
   2        2S         -0.22331   0.29531  -0.01735   0.00106  -0.56954
   3        2PX         0.11504  -0.18493   0.01843  -0.01087   0.85638
   4        2PY         0.24096   0.11742  -0.10854   0.01616   0.08939
   5        2PZ         0.01761   0.02297   0.02454  -0.17313  -0.01254
   6        3S         -0.14927  -0.75810  -1.24899  -0.34606  -1.93530
   7        3PX         0.08445   0.36636   0.34903   0.14697   1.29711
   8        3PY        -0.13880  -0.30100  -0.68971  -0.16381  -0.25006
   9        3PZ         0.04513   0.03949   0.02669  -0.29861  -0.04874
  10        4XX         0.19767  -0.60862   0.45837   0.07632  -0.77913
  11        4YY         0.04474   0.13752  -0.96130  -0.15733   0.33061
  12        4ZZ        -0.31593   0.78191   0.46278   0.11134   0.33694
  13        4XY         0.60210   0.15361  -0.10605  -0.07341  -0.65846
  14        4XZ        -0.04321  -0.06808  -0.20646   0.93190  -0.04055
  15        4YZ         0.24966   0.01139  -0.07641   0.00772   0.04172
  16 2   H  1S         -0.39536  -0.00322   0.84076   0.15183   0.16820
  17        2S          0.11604   0.30896   0.15017   0.05621   0.01838
  18 3   H  1S          0.34121   0.26121   0.13597   0.06634  -0.28422
  19        2S         -0.23605  -0.15420  -0.22280  -0.09870  -0.14630
  20 4   N  1S         -0.01251   0.01101  -0.03988  -0.00805  -0.05920
  21        2S         -0.34756   0.16054  -0.61167  -0.12530  -0.14462
  22        2PX        -0.16055   0.36637  -0.27686  -0.02892   0.39921
  23        2PY         0.02772   0.00640  -0.07972  -0.01760  -0.07929
  24        2PZ         0.01487  -0.00482  -0.00616   0.06943  -0.02535
  25        3S          0.60134   0.27324   1.63139   0.40390   2.33457
  26        3PX         0.55444  -0.35596   0.60431   0.15444   1.76917
  27        3PY         0.60397   0.28494   0.43774   0.10412   0.12331
  28        3PZ        -0.10664  -0.10682  -0.14097   0.36100  -0.00693
  29        4XX         0.13974  -0.38883   0.13483   0.03059   0.99017
  30        4YY        -0.00631   0.67747   0.23250   0.10819  -0.52210
  31        4ZZ        -0.24462  -0.02582  -0.60522  -0.16241  -0.44617
  32        4XY        -0.45339  -0.20128   0.10269  -0.09639  -0.66006
  33        4XZ        -0.03221  -0.04797  -0.15646   0.93350  -0.08174
  34        4YZ        -0.45281  -0.16861  -0.07433  -0.05629  -0.03639
  35 5   H  1S         -0.49388  -0.48972  -0.31939  -0.18098  -0.15896
  36        2S         -0.02932   0.08662  -0.05863   0.05694   0.21728
  37 6   H  1S          0.42068   0.06208  -0.20358  -0.01657   0.28896
  38        2S          0.10834  -0.08337   0.11320   0.02056   0.21887
                          36        37        38
                           V         V         V
     Eigenvalues --     2.60404   3.52966   3.90258
   1 1   C  1S          0.02484  -0.06414  -0.46366
   2        2S         -0.45001   0.73970   2.91973
   3        2PX         0.60238  -0.34730   0.26586
   4        2PY        -0.06841   0.02455  -0.01369
   5        2PZ        -0.01240   0.01558  -0.00397
   6        3S         -1.27175  -1.20149   1.67518
   7        3PX         0.56256   0.76538   0.17619
   8        3PY         0.21142  -0.25744   0.00369
   9        3PZ        -0.00116  -0.02642  -0.01997
  10        4XX        -0.69109  -0.02147  -2.16239
  11        4YY         0.29568  -0.35697  -1.80136
  12        4ZZ         0.40552  -0.27887  -1.71300
  13        4XY         0.74504  -0.03751   0.04575
  14        4XZ         0.10357  -0.01732   0.02080
  15        4YZ        -0.05877  -0.00608  -0.00969
  16 2   H  1S         -0.22278   0.11782   0.19942
  17        2S          0.05639   0.10144  -0.50681
  18 3   H  1S          0.47265   0.03898   0.23046
  19        2S         -0.06781  -0.20010  -0.53837
  20 4   N  1S         -0.07939  -0.48109   0.08537
  21        2S          0.00163   0.98614  -0.05027
  22        2PX         0.34221  -0.15108   0.32591
  23        2PY         0.06255  -0.01775  -0.00935
  24        2PZ        -0.00004   0.02158  -0.01135
  25        3S          1.78111   3.93273  -0.74771
  26        3PX         0.76747   0.39323   0.21054
  27        3PY        -0.15617   0.21686   0.07353
  28        3PZ        -0.00455  -0.08487   0.02477
  29        4XX         0.80675  -1.72497   0.64368
  30        4YY        -0.43352  -1.47037   0.23868
  31        4ZZ        -0.59839  -1.51637   0.20704
  32        4XY         0.80778  -0.09473   0.02507
  33        4XZ         0.02503   0.00405  -0.00368
  34        4YZ         0.06096  -0.02838   0.00504
  35 5   H  1S          0.23958  -0.01113  -0.02306
  36        2S         -0.12697  -0.43139   0.10525
  37 6   H  1S         -0.62066   0.27133  -0.03036
  38        2S          0.21781  -0.49666   0.20626
     Density Matrix:
                           1         2         3         4         5
   1 1   C  1S          2.05576
   2        2S         -0.08267   0.38964
   3        2PX        -0.02405   0.04201   0.44539
   4        2PY        -0.00425   0.01236  -0.00264   0.54946
   5        2PZ        -0.00034   0.00342  -0.00824   0.07605   0.18865
   6        3S         -0.15014   0.28303   0.17003   0.01884   0.00700
   7        3PX        -0.02694   0.05950   0.09603   0.02160   0.01551
   8        3PY         0.00033   0.00537   0.00724   0.24084   0.04584
   9        3PZ        -0.00074   0.00647   0.00766   0.04262   0.10091
  10        4XX        -0.01826   0.00116  -0.02235  -0.01176  -0.00094
  11        4YY        -0.02290   0.00615   0.02774   0.01465   0.00028
  12        4ZZ        -0.01118  -0.02033   0.00431  -0.00126   0.00002
  13        4XY         0.00177  -0.00443  -0.00907   0.01694   0.00285
  14        4XZ         0.00076  -0.00162  -0.00087   0.00085  -0.01368
  15        4YZ        -0.00141   0.00338   0.00261  -0.00043   0.00071
  16 2   H  1S         -0.06425   0.13340   0.09508   0.26035   0.03254
  17        2S         -0.00096  -0.00106   0.00958   0.05619  -0.02066
  18 3   H  1S         -0.06894   0.14412   0.16677  -0.21331  -0.03718
  19        2S         -0.00501   0.02148   0.07380  -0.08975  -0.00978
  20 4   N  1S          0.01674  -0.03362   0.07384  -0.00080  -0.01148
  21        2S         -0.03404   0.06644  -0.16438  -0.00194   0.02778
  22        2PX        -0.08326   0.18152  -0.35704  -0.03484  -0.00590
  23        2PY         0.00721  -0.01425   0.03555   0.06303  -0.00839
  24        2PZ        -0.00002  -0.00459  -0.00645   0.02004   0.20228
  25        3S         -0.00894   0.03849  -0.07223   0.05745   0.09955
  26        3PX        -0.03069   0.05959  -0.14800  -0.01992  -0.01827
  27        3PY         0.00074   0.00126   0.04354   0.01293   0.01263
  28        3PZ         0.00100  -0.00875  -0.00841  -0.00393   0.10375
  29        4XX        -0.00752   0.01174  -0.00407   0.00392   0.00172
  30        4YY         0.00317  -0.00848   0.00946  -0.00235  -0.00564
  31        4ZZ         0.00206  -0.00465   0.00505  -0.00338   0.00024
  32        4XY         0.00077  -0.00109   0.00633   0.02493   0.00747
  33        4XZ         0.00026  -0.00047   0.00133   0.00292   0.01399
  34        4YZ        -0.00032   0.00078  -0.00059   0.00058  -0.00257
  35 5   H  1S          0.01196  -0.03759   0.01411  -0.03717  -0.06400
  36        2S          0.01112  -0.05634  -0.05377  -0.13149  -0.14273
  37 6   H  1S          0.01210  -0.03038   0.06619   0.02752   0.01317
  38        2S          0.00088  -0.00991   0.02404   0.02243  -0.01028
                           6         7         8         9        10
   6        3S          0.26370
   7        3PX         0.07866   0.09160
   8        3PY         0.01855   0.04656   0.13350
   9        3PZ         0.01724   0.03394   0.03978   0.07075
  10        4XX        -0.00602   0.00116  -0.00308   0.00080   0.00223
  11        4YY         0.01392   0.00242   0.00456  -0.00072  -0.00195
  12        4ZZ        -0.01174  -0.00177  -0.00011   0.00004  -0.00029
  13        4XY        -0.00581  -0.00723   0.00729  -0.00146  -0.00070
  14        4XZ        -0.00078   0.00093   0.00118  -0.00476   0.00016
  15        4YZ         0.00337   0.00171   0.00026   0.00066  -0.00003
  16 2   H  1S          0.12493   0.01457   0.10118   0.00829  -0.01226
  17        2S         -0.01761  -0.11753  -0.04408  -0.05981  -0.01256
  18 3   H  1S          0.14976   0.05885  -0.08753  -0.00888  -0.00051
  19        2S          0.03793   0.03293  -0.03057   0.00520   0.00038
  20 4   N  1S          0.01591  -0.02451  -0.01030  -0.01356  -0.01019
  21        2S         -0.04404   0.05349   0.02021   0.03077   0.02059
  22        2PX         0.03745  -0.08425  -0.03457  -0.02166   0.01594
  23        2PY         0.00074   0.06639   0.00051   0.02659   0.00671
  24        2PZ        -0.01740  -0.03413  -0.00785   0.05746  -0.00398
  25        3S         -0.00745   0.27378   0.15902   0.15008   0.03267
  26        3PX        -0.00057  -0.06844  -0.03325  -0.03174   0.00379
  27        3PY         0.01985   0.09329   0.01602   0.04594   0.00802
  28        3PZ        -0.02314  -0.04941  -0.02856   0.00856  -0.00405
  29        4XX         0.00653   0.00121   0.00237   0.00112   0.00031
  30        4YY        -0.00534  -0.00467  -0.00449  -0.00510  -0.00080
  31        4ZZ        -0.00081  -0.00340  -0.00360  -0.00099  -0.00068
  32        4XY         0.00155   0.00691   0.01536   0.00599  -0.00053
  33        4XZ         0.00026   0.00090   0.00150   0.00752  -0.00011
  34        4YZ         0.00065  -0.00047   0.00107  -0.00144  -0.00010
  35 5   H  1S         -0.04834  -0.05180  -0.07062  -0.05215  -0.00121
  36        2S         -0.10734  -0.29685  -0.22347  -0.19099  -0.01777
  37 6   H  1S         -0.01874   0.01995   0.03300   0.00724  -0.00328
  38        2S         -0.00922  -0.04778  -0.01265  -0.02596  -0.00683
                          11        12        13        14        15
  11        4YY         0.00272
  12        4ZZ         0.00023   0.00128
  13        4XY         0.00038   0.00019   0.00297
  14        4XZ        -0.00013   0.00007  -0.00025   0.00154
  15        4YZ         0.00013  -0.00014  -0.00017  -0.00007   0.00006
  16 2   H  1S          0.01679  -0.00564   0.01012  -0.00162   0.00094
  17        2S          0.01108   0.00006   0.01413  -0.00335  -0.00161
  18 3   H  1S          0.00489  -0.00498  -0.01509  -0.00018   0.00239
  19        2S          0.00075  -0.00007  -0.00833   0.00030   0.00086
  20 4   N  1S          0.00706   0.00355   0.00172  -0.00009  -0.00009
  21        2S         -0.01569  -0.00735  -0.00368   0.00003   0.00012
  22        2PX        -0.01822  -0.01375   0.00457  -0.00107  -0.00030
  23        2PY        -0.00300  -0.00081  -0.03604   0.00373   0.00089
  24        2PZ         0.00241   0.00007   0.00860  -0.02429   0.00051
  25        3S         -0.02398  -0.00461  -0.02344   0.00393   0.00278
  26        3PX        -0.00551  -0.00487   0.00568  -0.00098  -0.00063
  27        3PY        -0.00467  -0.00064  -0.02828   0.00283   0.00132
  28        3PZ         0.00265   0.00010   0.00751  -0.01586  -0.00004
  29        4XX         0.00000  -0.00067   0.00041  -0.00007   0.00005
  30        4YY         0.00079   0.00050   0.00021   0.00014  -0.00011
  31        4ZZ         0.00045   0.00037  -0.00001  -0.00018  -0.00002
  32        4XY         0.00076   0.00017   0.00132  -0.00001   0.00004
  33        4XZ         0.00010   0.00006  -0.00003  -0.00104   0.00006
  34        4YZ         0.00006  -0.00003   0.00045   0.00021  -0.00001
  35 5   H  1S          0.00203   0.00080  -0.00779   0.00211  -0.00097
  36        2S          0.01252   0.00134   0.01954  -0.00389  -0.00397
  37 6   H  1S          0.00445   0.00251   0.01158  -0.00037  -0.00025
  38        2S          0.00612   0.00092   0.00902  -0.00116  -0.00076
                          16        17        18        19        20
  16 2   H  1S          0.20076
  17        2S          0.09284   0.24959
  18 3   H  1S         -0.03459  -0.04887   0.19818
  19        2S         -0.03461  -0.04726   0.07513   0.03624
  20 4   N  1S          0.01642   0.04731   0.00470  -0.00024   2.06782
  21        2S         -0.04094  -0.10356  -0.01305  -0.00046  -0.14106
  22        2PX        -0.01729   0.02061  -0.04942  -0.05200   0.01935
  23        2PY        -0.04381  -0.14222   0.04320   0.05350  -0.02589
  24        2PZ         0.03679   0.08320  -0.03225  -0.02071   0.01151
  25        3S         -0.11254  -0.49527   0.03287   0.06836  -0.27936
  26        3PX         0.00338   0.07275  -0.03193  -0.03267   0.02343
  27        3PY        -0.05756  -0.18481   0.05892   0.05721  -0.03553
  28        3PZ         0.02697   0.10486  -0.02257  -0.02016   0.01671
  29        4XX         0.00517   0.00044   0.00077  -0.00104  -0.02070
  30        4YY         0.00093   0.01223   0.00038   0.00015  -0.01632
  31        4ZZ        -0.00061   0.00553   0.00067   0.00007  -0.00993
  32        4XY         0.01174  -0.00440  -0.00861  -0.00288  -0.00391
  33        4XZ         0.00132  -0.00087  -0.00115   0.00006  -0.00150
  34        4YZ         0.00105   0.00086  -0.00071  -0.00060   0.00094
  35 5   H  1S         -0.01392   0.09847   0.01392   0.00506  -0.02137
  36        2S          0.05189   0.53485  -0.04144  -0.07262   0.09732
  37 6   H  1S          0.03257   0.02447  -0.01417  -0.00753  -0.05361
  38        2S          0.04500   0.11317  -0.02146  -0.02080   0.02139
                          21        22        23        24        25
  21        2S          0.45728
  22        2PX        -0.03839   0.54424
  23        2PY         0.05221  -0.03574   0.67084
  24        2PZ        -0.01927   0.02504  -0.10009   0.38888
  25        3S          0.62667  -0.22524   0.30180  -0.12198   1.48237
  26        3PX        -0.05138   0.22997  -0.06279   0.02967  -0.23188
  27        3PY         0.07853  -0.05473   0.46442  -0.08427   0.38714
  28        3PZ        -0.03423   0.02856  -0.08858   0.25952  -0.18820
  29        4XX         0.00899   0.00612  -0.00715   0.00013   0.00850
  30        4YY        -0.00138  -0.01684  -0.00279  -0.00140  -0.01639
  31        4ZZ        -0.01574   0.00033   0.00073   0.00421  -0.02513
  32        4XY         0.00829  -0.01560  -0.01205   0.00148   0.02548
  33        4XZ         0.00347  -0.00383   0.00196   0.01559   0.00739
  34        4YZ        -0.00224   0.00187  -0.00820  -0.00327  -0.00425
  35 5   H  1S          0.04748  -0.06634   0.16104  -0.03720  -0.09981
  36        2S         -0.21409   0.11094  -0.22903   0.11406  -1.11878
  37 6   H  1S          0.11718  -0.18327  -0.21231   0.01483   0.13370
  38        2S         -0.04898  -0.02059  -0.12176   0.03455  -0.21733
                          26        27        28        29        30
  26        3PX         0.11439
  27        3PY        -0.07672   0.35670
  28        3PZ         0.03957  -0.08992   0.18803
  29        4XX         0.00228  -0.00432  -0.00053   0.00068
  30        4YY        -0.00387  -0.00550   0.00183  -0.00007   0.00135
  31        4ZZ         0.00193  -0.00201   0.00438  -0.00029   0.00049
  32        4XY        -0.00839  -0.00502  -0.00207   0.00047  -0.00002
  33        4XZ        -0.00258   0.00230   0.00864   0.00008  -0.00013
  34        4YZ         0.00133  -0.00548  -0.00211   0.00003   0.00001
  35 5   H  1S         -0.00630   0.06485   0.00399  -0.00229   0.00961
  36        2S          0.18809  -0.34773   0.20200  -0.00293   0.02677
  37 6   H  1S         -0.06873  -0.12887   0.00723   0.00351   0.00677
  38        2S          0.02262  -0.11665   0.04356   0.00028   0.00646
                          31        32        33        34        35
  31        4ZZ         0.00064
  32        4XY        -0.00074   0.00226
  33        4XZ        -0.00003   0.00041   0.00105
  34        4YZ        -0.00002   0.00017  -0.00018   0.00015
  35 5   H  1S          0.00272  -0.00841  -0.00168  -0.00262   0.15775
  36        2S          0.01568  -0.02575  -0.00653   0.00100   0.27065
  37 6   H  1S         -0.00486   0.01350   0.00135   0.00182  -0.02147
  38        2S          0.00205   0.00058  -0.00069   0.00116   0.02619
                          36        37        38
  36        2S          1.26769
  37 6   H  1S         -0.01227   0.17286
  38        2S          0.22725   0.04097   0.05835
    Full Mulliken population analysis:
                           1         2         3         4         5
   1 1   C  1S          2.05576
   2        2S         -0.01811   0.38964
   3        2PX         0.00000   0.00000   0.44539
   4        2PY         0.00000   0.00000   0.00000   0.54946
   5        2PZ         0.00000   0.00000   0.00000   0.00000   0.18865
   6        3S         -0.02767   0.22990   0.00000   0.00000   0.00000
   7        3PX         0.00000   0.00000   0.05471   0.00000   0.00000
   8        3PY         0.00000   0.00000   0.00000   0.13722   0.00000
   9        3PZ         0.00000   0.00000   0.00000   0.00000   0.05749
  10        4XX        -0.00144   0.00082   0.00000   0.00000   0.00000
  11        4YY        -0.00181   0.00437   0.00000   0.00000   0.00000
  12        4ZZ        -0.00088  -0.01444   0.00000   0.00000   0.00000
  13        4XY         0.00000   0.00000   0.00000   0.00000   0.00000
  14        4XZ         0.00000   0.00000   0.00000   0.00000   0.00000
  15        4YZ         0.00000   0.00000   0.00000   0.00000   0.00000
  16 2   H  1S         -0.00261   0.04086   0.01212   0.09885   0.00075
  17        2S         -0.00009  -0.00053   0.00081   0.01415  -0.00032
  18 3   H  1S         -0.00260   0.04248   0.04276   0.06201   0.00164
  19        2S         -0.00048   0.01054   0.01291   0.01780   0.00029
  20 4   N  1S          0.00000  -0.00071  -0.00330   0.00000  -0.00001
  21        2S         -0.00043   0.01243   0.04645   0.00000   0.00015
  22        2PX        -0.00244   0.04348   0.11074   0.00000  -0.00005
  23        2PY         0.00000   0.00000   0.00000   0.00648   0.00000
  24        2PZ         0.00000   0.00002  -0.00005   0.00000   0.02077
  25        3S         -0.00061   0.01442   0.02141   0.00000   0.00057
  26        3PX        -0.00437   0.03457   0.03173   0.00000  -0.00017
  27        3PY         0.00000   0.00000   0.00000   0.00348   0.00000
  28        3PZ         0.00000   0.00010  -0.00008   0.00000   0.02791
  29        4XX        -0.00058   0.00450   0.00180   0.00000   0.00002
  30        4YY         0.00001  -0.00100  -0.00162   0.00000  -0.00002
  31        4ZZ         0.00000  -0.00055  -0.00087   0.00000   0.00000
  32        4XY         0.00000   0.00000   0.00000   0.00560   0.00000
  33        4XZ         0.00000   0.00000   0.00002   0.00000   0.00314
  34        4YZ         0.00000   0.00000   0.00000   0.00000   0.00000
  35 5   H  1S          0.00000  -0.00045  -0.00030  -0.00045   0.00017
  36        2S          0.00020  -0.00734   0.00603  -0.00832   0.00199
  37 6   H  1S          0.00000  -0.00022  -0.00097  -0.00014   0.00000
  38        2S          0.00001  -0.00104  -0.00250  -0.00079   0.00001
                           6         7         8         9        10
   6        3S          0.26370
   7        3PX         0.00000   0.09160
   8        3PY         0.00000   0.00000   0.13350
   9        3PZ         0.00000   0.00000   0.00000   0.07075
  10        4XX        -0.00379   0.00000   0.00000   0.00000   0.00223
  11        4YY         0.00877   0.00000   0.00000   0.00000  -0.00065
  12        4ZZ        -0.00739   0.00000   0.00000   0.00000  -0.00010
  13        4XY         0.00000   0.00000   0.00000   0.00000   0.00000
  14        4XZ         0.00000   0.00000   0.00000   0.00000   0.00000
  15        4YZ         0.00000   0.00000   0.00000   0.00000   0.00000
  16 2   H  1S          0.04961   0.00240   0.04956   0.00025  -0.00210
  17        2S         -0.01280  -0.02143  -0.02393  -0.00198  -0.00474
  18 3   H  1S          0.05843   0.01999   0.03372   0.00052  -0.00014
  19        2S          0.02728   0.01249   0.01314  -0.00034   0.00015
  20 4   N  1S          0.00091   0.00268   0.00000  -0.00003  -0.00060
  21        2S         -0.01417  -0.02738   0.00000   0.00030   0.00720
  22        2PX         0.00711   0.00992   0.00000  -0.00013   0.00637
  23        2PY         0.00000   0.00000   0.00010   0.00000   0.00000
  24        2PZ         0.00006  -0.00020   0.00000   0.01111   0.00005
  25        3S         -0.00431  -0.17328  -0.00002   0.00182   0.01266
  26        3PX        -0.00032   0.00294   0.00000  -0.00038   0.00166
  27        3PY         0.00000  -0.00001   0.00921   0.00000   0.00000
  28        3PZ         0.00025  -0.00059   0.00000   0.00492   0.00005
  29        4XX         0.00247  -0.00051   0.00000   0.00001   0.00015
  30        4YY        -0.00152   0.00215   0.00000  -0.00005  -0.00015
  31        4ZZ        -0.00023   0.00157   0.00000  -0.00001  -0.00013
  32        4XY         0.00000   0.00000   0.00258   0.00000   0.00000
  33        4XZ         0.00000   0.00000   0.00000   0.00126   0.00000
  34        4YZ         0.00000   0.00000   0.00000   0.00000   0.00000
  35 5   H  1S         -0.00432   0.01019  -0.00785   0.00127  -0.00002
  36        2S         -0.03157   0.11688  -0.04970   0.00934  -0.00241
  37 6   H  1S         -0.00133  -0.00359  -0.00201  -0.00002  -0.00004
  38        2S         -0.00235   0.01887   0.00169   0.00012  -0.00083
                          11        12        13        14        15
  11        4YY         0.00272
  12        4ZZ         0.00008   0.00128
  13        4XY         0.00000   0.00000   0.00297
  14        4XZ         0.00000   0.00000   0.00000   0.00154
  15        4YZ         0.00000   0.00000   0.00000   0.00000   0.00006
  16 2   H  1S          0.00768  -0.00077   0.00190  -0.00002   0.00003
  17        2S          0.00487   0.00002   0.00057  -0.00001  -0.00001
  18 3   H  1S          0.00159  -0.00066   0.00451   0.00001   0.00012
  19        2S          0.00031  -0.00003   0.00055   0.00000   0.00001
  20 4   N  1S          0.00001   0.00000   0.00000   0.00000   0.00000
  21        2S         -0.00110  -0.00052   0.00000   0.00000   0.00000
  22        2PX        -0.00185  -0.00140   0.00000   0.00001   0.00000
  23        2PY         0.00000   0.00000   0.00667   0.00000   0.00000
  24        2PZ         0.00000   0.00000   0.00000   0.00449   0.00000
  25        3S         -0.00616  -0.00118   0.00000  -0.00002   0.00000
  26        3PX        -0.00246  -0.00218   0.00000   0.00000   0.00000
  27        3PY         0.00000   0.00000   0.00581   0.00000   0.00001
  28        3PZ        -0.00002   0.00000   0.00000   0.00325   0.00000
  29        4XX         0.00000  -0.00013   0.00000   0.00000   0.00000
  30        4YY         0.00008   0.00002   0.00000   0.00000   0.00000
  31        4ZZ         0.00002   0.00004   0.00000   0.00000   0.00000
  32        4XY         0.00000   0.00000  -0.00048   0.00000   0.00000
  33        4XZ         0.00000   0.00000   0.00000   0.00038   0.00000
  34        4YZ         0.00000   0.00000   0.00000   0.00000   0.00000
  35 5   H  1S          0.00002   0.00000   0.00013   0.00001   0.00000
  36        2S          0.00126   0.00011  -0.00097  -0.00004   0.00002
  37 6   H  1S          0.00001   0.00000   0.00008   0.00000   0.00000
  38        2S          0.00045   0.00006   0.00029   0.00000   0.00000
                          16        17        18        19        20
  16 2   H  1S          0.20076
  17        2S          0.06112   0.24959
  18 3   H  1S         -0.00054  -0.00684   0.19818
  19        2S         -0.00484  -0.01825   0.04945   0.03624
  20 4   N  1S          0.00000   0.00093   0.00000   0.00000   2.06782
  21        2S         -0.00046  -0.01361  -0.00004  -0.00004  -0.03135
  22        2PX        -0.00032   0.00190  -0.00033  -0.00369   0.00000
  23        2PY        -0.00050  -0.00808  -0.00012  -0.00152   0.00000
  24        2PZ         0.00002   0.00017   0.00002   0.00011   0.00000
  25        3S         -0.01079  -0.15455   0.00180   0.01555  -0.04801
  26        3PX         0.00069   0.02724  -0.00456  -0.01095   0.00000
  27        3PY        -0.00723  -0.04268  -0.00338  -0.00771   0.00000
  28        3PZ         0.00012   0.00088   0.00024   0.00050   0.00000
  29        4XX         0.00019   0.00008   0.00001  -0.00013  -0.00104
  30        4YY         0.00002   0.00167   0.00000   0.00001  -0.00082
  31        4ZZ         0.00000   0.00064   0.00000   0.00000  -0.00050
  32        4XY         0.00039  -0.00027   0.00008   0.00011   0.00000
  33        4XZ         0.00000   0.00000   0.00000   0.00000   0.00000
  34        4YZ         0.00000   0.00000   0.00000   0.00000   0.00000
  35 5   H  1S         -0.00006   0.00800   0.00000   0.00004  -0.00042
  36        2S          0.00422   0.14774  -0.00036  -0.00507   0.00663
  37 6   H  1S          0.00000   0.00031   0.00000  -0.00015  -0.00167
  38        2S          0.00058   0.00999  -0.00043  -0.00240   0.00165
                          21        22        23        24        25
  21        2S          0.45728
  22        2PX         0.00000   0.54424
  23        2PY         0.00000   0.00000   0.67084
  24        2PZ         0.00000   0.00000   0.00000   0.38888
  25        3S          0.48598   0.00000   0.00000   0.00000   1.48237
  26        3PX         0.00000   0.11942   0.00000   0.00000   0.00000
  27        3PY         0.00000   0.00000   0.24117   0.00000   0.00000
  28        3PZ         0.00000   0.00000   0.00000   0.13477   0.00000
  29        4XX         0.00572   0.00000   0.00000   0.00000   0.00570
  30        4YY        -0.00088   0.00000   0.00000   0.00000  -0.01099
  31        4ZZ        -0.01001   0.00000   0.00000   0.00000  -0.01684
  32        4XY         0.00000   0.00000   0.00000   0.00000   0.00000
  33        4XZ         0.00000   0.00000   0.00000   0.00000   0.00000
  34        4YZ         0.00000   0.00000   0.00000   0.00000   0.00000
  35 5   H  1S          0.00873   0.00723   0.03508   0.00198  -0.03467
  36        2S         -0.07985  -0.00932  -0.03843  -0.00467  -0.72059
  37 6   H  1S          0.02867   0.04255   0.04398  -0.00021   0.05291
  38        2S         -0.02029   0.00299   0.01577  -0.00031  -0.15061
                          26        27        28        29        30
  26        3PX         0.11439
  27        3PY         0.00000   0.35670
  28        3PZ         0.00000   0.00000   0.18803
  29        4XX         0.00000   0.00000   0.00000   0.00068
  30        4YY         0.00000   0.00000   0.00000  -0.00002   0.00135
  31        4ZZ         0.00000   0.00000   0.00000  -0.00010   0.00016
  32        4XY         0.00000   0.00000   0.00000   0.00000   0.00000
  33        4XZ         0.00000   0.00000   0.00000   0.00000   0.00000
  34        4YZ         0.00000   0.00000   0.00000   0.00000   0.00000
  35 5   H  1S          0.00146   0.03007  -0.00045  -0.00037   0.00328
  36        2S         -0.04546  -0.16786  -0.02382  -0.00102   0.01061
  37 6   H  1S          0.02821   0.04720  -0.00018   0.00118   0.00200
  38        2S         -0.00912   0.04197  -0.00109   0.00011   0.00261
                          31        32        33        34        35
  31        4ZZ         0.00064
  32        4XY         0.00000   0.00226
  33        4XZ         0.00000   0.00000   0.00105
  34        4YZ         0.00000   0.00000   0.00000   0.00015
  35 5   H  1S          0.00031   0.00175  -0.00009   0.00027   0.15775
  36        2S          0.00527   0.00143  -0.00009  -0.00003   0.17817
  37 6   H  1S         -0.00066   0.00418   0.00003   0.00003  -0.00050
  38        2S          0.00076   0.00004   0.00000   0.00000   0.00430
                          36        37        38
  36        2S          1.26769
  37 6   H  1S         -0.00202   0.17286
  38        2S          0.09687   0.02697   0.05835
     Gross orbital populations:
                           1
   1 1   C  1S          1.99185
   2        2S          0.78376
   3        2PX         0.77717
   4        2PY         0.88535
   5        2PZ         0.30300
   6        3S          0.53674
   7        3PX         0.11939
   8        3PY         0.29723
   9        3PZ         0.15625
  10        4XX         0.01419
  11        4YY         0.01815
  12        4ZZ        -0.02805
  13        4XY         0.02203
  14        4XZ         0.00960
  15        4YZ         0.00025
  16 2   H  1S          0.50187
  17        2S          0.22057
  18 3   H  1S          0.49756
  19        2S          0.14188
  20 4   N  1S          1.99217
  21        2S          0.85278
  22        2PX         0.87645
  23        2PY         0.97143
  24        2PZ         0.55698
  25        3S          0.76255
  26        3PX         0.28235
  27        3PY         0.50674
  28        3PZ         0.33478
  29        4XX         0.01873
  30        4YY         0.00692
  31        4ZZ        -0.02048
  32        4XY         0.01768
  33        4XZ         0.00571
  34        4YZ         0.00042
  35 5   H  1S          0.40030
  36        2S          0.65553
  37 6   H  1S          0.43747
  38        2S          0.09269
          Condensed to atoms (all electrons):
               1          2          3          4          5          6
     1  C    5.033419   0.213092   0.358998   0.241742   0.033892   0.005763
     2  H    0.213092   0.572584  -0.030473  -0.203557   0.159908   0.010884
     3  H    0.358998  -0.030473   0.333330  -0.014040  -0.005391  -0.002979
     4  N    0.241742  -0.203557  -0.014040   8.021397  -1.013014   0.132698
     5  H    0.033892   0.159908  -0.005391  -1.013014   1.781775   0.098654
     6  H    0.005763   0.010884  -0.002979   0.132698   0.098654   0.285146
 Mulliken charges:
               1
     1  C    0.113095
     2  H    0.277563
     3  H    0.360556
     4  N   -0.165225
     5  H   -0.055824
     6  H    0.469835
 Sum of Mulliken charges =   1.00000
 Mulliken charges with hydrogens summed into heavy atoms:
               1
     1  C    0.751214
     4  N    0.248786
 Electronic spatial extent (au):  <R**2>=             73.9752
 Charge=              1.0000 electrons
 Dipole moment (field-independent basis, Debye):
    X=              1.4096    Y=             -2.5896    Z=              0.2154  Tot=              2.9563
 Quadrupole moment (field-independent basis, Debye-Ang):
   XX=             -6.6207   YY=            -12.6561   ZZ=            -11.8785
   XY=              2.9263   XZ=             -0.4362   YZ=              0.7523
 Traceless Quadrupole moment (field-independent basis, Debye-Ang):
   XX=              3.7645   YY=             -2.2710   ZZ=             -1.4934
   XY=              2.9263   XZ=             -0.4362   YZ=              0.7523
 Octapole moment (field-independent basis, Debye-Ang**2):
  XXX=              3.2280  YYY=             -8.4948  ZZZ=              1.1314  XYY=              3.9834
  XXY=             -7.5058  XXZ=              0.3862  XZZ=              1.0165  YZZ=             -1.7423
  YYZ=              0.8909  XYZ=             -0.5330
 Hexadecapole moment (field-independent basis, Debye-Ang**3):
 XXXX=            -50.0277 YYYY=            -34.6726 ZZZZ=            -10.8960 XXXY=              9.5468
 XXXZ=             -1.9725 YYYX=              8.6950 YYYZ=              2.2915 ZZZX=             -1.0636
 ZZZY=              1.3107 XXYY=            -13.6038 XXZZ=            -11.8007 YYZZ=             -7.5035
 XXYZ=              1.5461 YYXZ=             -0.9820 ZZXY=              1.7521
 N-N= 3.858456386500D+01 E-N=-2.914190600822D+02  KE= 9.433930875021D+01
 Orbital energies and kinetic energies (alpha):
                                 1                 2
   1         O               -14.767463         21.958654
   2         O               -10.614400         15.876212
   3         O                -1.320815          2.015521
   4         O                -1.031063          1.611725
   5         O                -0.893470          1.261068
   6         O                -0.865194          1.448834
   7         O                -0.743807          1.336700
   8         O                -0.704392          1.462284
   9         V                -0.261488          1.538528
  10         V                -0.146941          1.155871
  11         V                -0.090349          1.141553
  12         V                -0.037294          1.055290
  13         V                 0.036060          1.128594
  14         V                 0.100257          1.237545
  15         V                 0.328569          2.109959
  16         V                 0.334877          1.992702
  17         V                 0.393451          1.855483
  18         V                 0.448852          1.625856
  19         V                 0.504653          2.629292
  20         V                 0.568710          2.182820
  21         V                 0.608301          2.443291
  22         V                 0.657926          2.856162
  23         V                 0.703091          3.184714
  24         V                 0.768310          2.578708
  25         V                 0.961319          2.409446
  26         V                 1.077731          2.353869
  27         V                 1.221476          2.706308
  28         V                 1.303331          2.695174
  29         V                 1.558845          2.976221
  30         V                 1.690886          3.240160
  31         V                 1.752322          3.373282
  32         V                 1.960597          3.671610
  33         V                 2.107865          3.791679
  34         V                 2.197255          3.712329
  35         V                 2.424951          4.562935
  36         V                 2.604036          4.689113
  37         V                 3.529664          9.871651
  38         V                 3.902576          9.951232
 Total kinetic energy from orbitals= 9.394199453310D+01
 1\1\GINC-EAM\SP\RCAM-B3LYP TD-FC\6-31G(d)\C1H4N1(1+)\DULIKAI\25-Jul-20
 14\0\\# td(singlet, root=3, nstates=4) cam-b3lyp/6-31G* scf=(xqc, maxc
 ycle=10000) nosymm pop=full density=current\\[0] [0] iop(9/40=20)\\1,1
 \C,0,0.678093967,-0.0167560471,-0.0011887278\H,0,1.0086260421,0.967355
 8026,0.0589275494\H,0,1.3729527389,-0.8045940221,-0.121004354\N,0,-0.5
 873899507,-0.0169590183,0.0230776509\H,0,-1.0864700838,0.9798783209,-0
 .2204017253\H,0,-1.3613999326,-0.7074849401,-0.0248003291\\Version=EM6
 4L-G09RevD.01\HF=-94.8897761\RMSD=6.220e-09\Dipole=0.5667302,-1.042844
 9,0.1017441\Quadrupole=2.7987783,-1.6884513,-1.110327,2.1755967,-0.324
 3033,0.5593069\PG=C01 [X(C1H4N1)]\\@


 Cherishing children is the mark of a civilized society.
 -- Joan Ganz Cooney
 Job cpu time:       0 days  0 hours  0 minutes 19.0 seconds.
 File lengths (MBytes):  RWF=      6 Int=      0 D2E=      0 Chk=      2 Scr=      1
 Normal termination of Gaussian 09 at Fri Jul 25 16:59:36 2014.
