 Entering Gaussian System, Link 0=g09
 Input=b.gjf
 Output=b.log
 Initial command:
 /opt/g09_D01_em64t/g09/l1.exe "/tmp/Gau-1880.inp" -scrdir="/tmp/"
 Entering Link 1 = /opt/g09_D01_em64t/g09/l1.exe PID=      1881.
  
 Copyright (c) 1988,1990,1992,1993,1995,1998,2003,2009,2013,
            Gaussian, Inc.  All Rights Reserved.
  
 This is part of the Gaussian(R) 09 program.  It is based on
 the Gaussian(R) 03 system (copyright 2003, Gaussian, Inc.),
 the Gaussian(R) 98 system (copyright 1998, Gaussian, Inc.),
 the Gaussian(R) 94 system (copyright 1995, Gaussian, Inc.),
 the Gaussian 92(TM) system (copyright 1992, Gaussian, Inc.),
 the Gaussian 90(TM) system (copyright 1990, Gaussian, Inc.),
 the Gaussian 88(TM) system (copyright 1988, Gaussian, Inc.),
 the Gaussian 86(TM) system (copyright 1986, Carnegie Mellon
 University), and the Gaussian 82(TM) system (copyright 1983,
 Carnegie Mellon University). Gaussian is a federally registered
 trademark of Gaussian, Inc.
  
 This software contains proprietary and confidential information,
 including trade secrets, belonging to Gaussian, Inc.
  
 This software is provided under written license and may be
 used, copied, transmitted, or stored only in accord with that
 written license.
  
 The following legend is applicable only to US Government
 contracts under FAR:
  
                    RESTRICTED RIGHTS LEGEND
  
 Use, reproduction and disclosure by the US Government is
 subject to restrictions as set forth in subparagraphs (a)
 and (c) of the Commercial Computer Software - Restricted
 Rights clause in FAR 52.227-19.
  
 Gaussian, Inc.
 340 Quinnipiac St., Bldg. 40, Wallingford CT 06492
  
  
 ---------------------------------------------------------------
 Warning -- This program may not be used in any manner that
 competes with the business of Gaussian, Inc. or will provide
 assistance to any competitor of Gaussian, Inc.  The licensee
 of this program is prohibited from giving any competitor of
 Gaussian, Inc. access to this program.  By using this program,
 the user acknowledges that Gaussian, Inc. is engaged in the
 business of creating and licensing software in the field of
 computational chemistry and represents and warrants to the
 licensee that it is not a competitor of Gaussian, Inc. and that
 it will not use this program in any manner prohibited above.
 ---------------------------------------------------------------
  

 Cite this work as:
 Gaussian 09, Revision D.01,
 M. J. Frisch, G. W. Trucks, H. B. Schlegel, G. E. Scuseria, 
 M. A. Robb, J. R. Cheeseman, G. Scalmani, V. Barone, B. Mennucci, 
 G. A. Petersson, H. Nakatsuji, M. Caricato, X. Li, H. P. Hratchian, 
 A. F. Izmaylov, J. Bloino, G. Zheng, J. L. Sonnenberg, M. Hada, 
 M. Ehara, K. Toyota, R. Fukuda, J. Hasegawa, M. Ishida, T. Nakajima, 
 Y. Honda, O. Kitao, H. Nakai, T. Vreven, J. A. Montgomery, Jr., 
 J. E. Peralta, F. Ogliaro, M. Bearpark, J. J. Heyd, E. Brothers, 
 K. N. Kudin, V. N. Staroverov, T. Keith, R. Kobayashi, J. Normand, 
 K. Raghavachari, A. Rendell, J. C. Burant, S. S. Iyengar, J. Tomasi, 
 M. Cossi, N. Rega, J. M. Millam, M. Klene, J. E. Knox, J. B. Cross, 
 V. Bakken, C. Adamo, J. Jaramillo, R. Gomperts, R. E. Stratmann, 
 O. Yazyev, A. J. Austin, R. Cammi, C. Pomelli, J. W. Ochterski, 
 R. L. Martin, K. Morokuma, V. G. Zakrzewski, G. A. Voth, 
 P. Salvador, J. J. Dannenberg, S. Dapprich, A. D. Daniels, 
 O. Farkas, J. B. Foresman, J. V. Ortiz, J. Cioslowski, 
 and D. J. Fox, Gaussian, Inc., Wallingford CT, 2013.
 
 ******************************************
 Gaussian 09:  EM64L-G09RevD.01 24-Apr-2013
                24-Jul-2014 
 ******************************************
 %chk=a.chk
 %mem=2GB
 %nproc=2
 Will use up to    2 processors via shared memory.
 ------------------------------------------------------------------
 # force cam-b3lyp/6-31G* scf=(xqc, maxcycle=10000) nosymm pop=full
 ------------------------------------------------------------------
 1/10=7,30=1,38=1/1,3;
 2/12=2,15=1,17=6,18=5,40=1/2;
 3/5=1,6=6,7=1,11=2,16=1,25=1,30=1,71=1,74=-40/1,2,3;
 4//1;
 5/5=2,7=10000,8=3,13=1,38=5/2,8;
 6/7=3,28=1/1;
 7/29=1,30=1/1,2,3,16;
 1/10=7,30=1/3;
 99//99;
 --------------------
 [0] [0] iop(9/40=20)
 --------------------
 Symbolic Z-matrix:
 Charge =  1 Multiplicity = 1
 C                     0.67809  -0.01676  -0.00119 
 H                     1.00863   0.96736   0.05893 
 H                     1.37295  -0.80459  -0.121 
 N                    -0.58739  -0.01696   0.02308 
 H                    -1.08647   0.97988  -0.2204 
 H                    -1.3614   -0.70748  -0.0248 
 

 GradGradGradGradGradGradGradGradGradGradGradGradGradGradGradGradGradGrad
 Berny optimization.
 Initialization pass.
 Trust Radius=3.00D-01 FncErr=1.00D-07 GrdErr=1.00D-07
 Number of steps in this run=      2 maximum allowed number of steps=      2.
 GradGradGradGradGradGradGradGradGradGradGradGradGradGradGradGradGradGrad

                          Input orientation:                          
 ---------------------------------------------------------------------
 Center     Atomic      Atomic             Coordinates (Angstroms)
 Number     Number       Type             X           Y           Z
 ---------------------------------------------------------------------
      1          6           0        0.678094   -0.016756   -0.001189
      2          1           0        1.008626    0.967356    0.058928
      3          1           0        1.372953   -0.804594   -0.121004
      4          7           0       -0.587390   -0.016959    0.023078
      5          1           0       -1.086470    0.979878   -0.220402
      6          1           0       -1.361400   -0.707485   -0.024800
 ---------------------------------------------------------------------
                    Distance matrix (angstroms):
                    1          2          3          4          5
     1  C    0.000000
     2  H    1.039876   0.000000
     3  H    1.057295   1.817943   0.000000
     4  N    1.265717   1.875481   2.117563   0.000000
     5  H    2.038387   2.113672   3.040227   1.141073   0.000000
     6  H    2.153416   2.903296   2.737767   1.038369   1.720768
                    6
     6  H    0.000000
 Symmetry turned off by external request.
 Stoichiometry    CH4N(1+)
 Framework group  C1[X(CH4N)]
 Deg. of freedom    12
 Full point group                 C1      NOp   1
 Rotational constants (GHZ):    160.6237761     30.7981336     26.0411513
 Standard basis: 6-31G(d) (6D, 7F)
    38 basis functions,    72 primitive gaussians,    38 cartesian basis functions
     8 alpha electrons        8 beta electrons
       nuclear repulsion energy        38.5845638650 Hartrees.
 NAtoms=    6 NActive=    6 NUniq=    6 SFac= 1.00D+00 NAtFMM=   60 NAOKFM=F Big=F
 Integral buffers will be    131072 words long.
 Raffenetti 2 integral format.
 Two-electron integral symmetry is turned off.
 One-electron integrals computed using PRISM.
 NBasis=    38 RedAO= T EigKep=  6.80D-03  NBF=    38
 NBsUse=    38 1.00D-06 EigRej= -1.00D+00 NBFU=    38
 ExpMin= 1.61D-01 ExpMax= 4.17D+03 ExpMxC= 6.27D+02 IAcc=1 IRadAn=         1 AccDes= 0.00D+00
 Harris functional with IExCor=20419 and IRadAn=       1 diagonalized for initial guess.
 HarFok:  IExCor=20419 AccDes= 0.00D+00 IRadAn=         1 IDoV= 1 UseB2=F ITyADJ=14
 ICtDFT=  3500011 ScaDFX=  1.000000  1.000000  1.000000  1.000000
 FoFCou: FMM=F IPFlag=           0 FMFlag=      100000 FMFlg1=           0
         NFxFlg=           0 DoJE=T BraDBF=F KetDBF=T FulRan=T
         wScrn=  0.000000 ICntrl=     500 IOpCl=  0 I1Cent=   200000004 NGrid=           0
         NMat0=    1 NMatS0=      1 NMatT0=    0 NMatD0=    1 NMtDS0=    0 NMtDT0=    0
 Symmetry not used in FoFCou.
 Keep R1 ints in memory in canonical form, NReq=1433682.
 Requested convergence on RMS density matrix=1.00D-08 within 128 cycles.
 Requested convergence on MAX density matrix=1.00D-06.
 Requested convergence on             energy=1.00D-06.
 No special actions if energy rises.
 Integral accuracy reduced to 1.0D-05 until final iterations.
 Initial convergence to 1.0D-05 achieved.  Increase integral accuracy.
 SCF Done:  E(RCAM-B3LYP) =  -94.8897761271     A.U. after   12 cycles
            NFock= 12  Conv=0.62D-08     -V/T= 2.0101
 QCSCF skips out because SCF is already converged.

 **********************************************************************

            Population analysis using the SCF density.

 **********************************************************************

 Alpha  occ. eigenvalues --  -14.76746 -10.61440  -1.32081  -1.03106  -0.89347
 Alpha  occ. eigenvalues --   -0.86519  -0.74381  -0.70439
 Alpha virt. eigenvalues --   -0.26149  -0.14694  -0.09035  -0.03729   0.03606
 Alpha virt. eigenvalues --    0.10026   0.32857   0.33488   0.39345   0.44885
 Alpha virt. eigenvalues --    0.50465   0.56871   0.60830   0.65793   0.70309
 Alpha virt. eigenvalues --    0.76831   0.96132   1.07773   1.22148   1.30333
 Alpha virt. eigenvalues --    1.55885   1.69089   1.75232   1.96060   2.10787
 Alpha virt. eigenvalues --    2.19726   2.42495   2.60404   3.52966   3.90258
     Molecular Orbital Coefficients:
                           1         2         3         4         5
                           O         O         O         O         O
     Eigenvalues --   -14.76746 -10.61440  -1.32081  -1.03106  -0.89347
   1 1   C  1S          0.00008   0.99261  -0.11938  -0.15470   0.04494
   2        2S          0.00034   0.04938   0.23807   0.32668  -0.09591
   3        2PX        -0.00024  -0.00114  -0.15653   0.03141  -0.18223
   4        2PY        -0.00001   0.00007   0.01153   0.03436   0.29063
   5        2PZ         0.00001   0.00009   0.00179   0.00290   0.01899
   6        3S         -0.00058  -0.00933   0.08919   0.25912  -0.13051
   7        3PX         0.00028  -0.00076   0.01638   0.02405  -0.05000
   8        3PY         0.00013  -0.00004  -0.00537   0.01100   0.08198
   9        3PZ        -0.00002   0.00005  -0.00063  -0.00315   0.00577
  10        4XX        -0.00015  -0.00889   0.01529  -0.00288   0.00230
  11        4YY         0.00002  -0.00968  -0.00816   0.00875  -0.00435
  12        4ZZ         0.00001  -0.01015  -0.01638  -0.01729   0.00098
  13        4XY         0.00002  -0.00013  -0.00075  -0.00563  -0.00240
  14        4XZ         0.00000  -0.00005  -0.00061  -0.00232   0.00215
  15        4YZ         0.00000   0.00005   0.00072   0.00270  -0.00184
  16 2   H  1S         -0.00007  -0.00034   0.05017   0.13112   0.05599
  17        2S         -0.00006   0.00233   0.00328   0.02421   0.03398
  18 3   H  1S          0.00002  -0.00039   0.03343   0.11600  -0.19368
  19        2S          0.00002   0.00237  -0.01014   0.02335  -0.07698
  20 4   N  1S          0.99268  -0.00036  -0.19092   0.08197  -0.00678
  21        2S          0.03463  -0.00018   0.40065  -0.17999   0.01128
  22        2PX         0.00025  -0.00037   0.09229   0.32003   0.12457
  23        2PY         0.00002   0.00006   0.00349   0.04519   0.36968
  24        2PZ        -0.00012   0.00001  -0.01496   0.02041  -0.01545
  25        3S          0.00428   0.00121   0.39246  -0.25244   0.01792
  26        3PX        -0.00002  -0.00095   0.02063   0.13955   0.05680
  27        3PY        -0.00008  -0.00051   0.01337   0.01741   0.20242
  28        3PZ         0.00001  -0.00003  -0.01036   0.01426  -0.01022
  29        4XX        -0.00812  -0.00079   0.01258   0.00153  -0.00731
  30        4YY        -0.00827  -0.00018   0.00110  -0.01310   0.00326
  31        4ZZ        -0.00830  -0.00004  -0.01665   0.00620  -0.00156
  32        4XY         0.00002   0.00000   0.00324  -0.00560  -0.00501
  33        4XZ         0.00000   0.00000   0.00162  -0.00445   0.00034
  34        4YZ         0.00000   0.00000  -0.00319   0.00201  -0.00638
  35 5   H  1S          0.00030   0.00006   0.07720  -0.09379   0.13185
  36        2S         -0.00040   0.00001  -0.00585  -0.01789   0.04722
  37 6   H  1S          0.00030  -0.00016   0.08601  -0.17197  -0.16151
  38        2S         -0.00054  -0.00050  -0.00566  -0.02673  -0.04973
                           6         7         8         9        10
                           O         O         O         V         V
     Eigenvalues --    -0.86519  -0.74381  -0.70439  -0.26149  -0.14694
   1 1   C  1S         -0.03871  -0.00318   0.00411  -0.00678   0.00272
   2        2S          0.07123   0.00811  -0.00941   0.01752  -0.02002
   3        2PX         0.39274   0.00504   0.04360   0.00663  -0.08953
   4        2PY         0.14707   0.31537  -0.22969  -0.04944  -0.10833
   5        2PZ        -0.02296   0.21102   0.26309   0.52296  -0.05728
   6        3S          0.14729   0.01376  -0.00868   0.01267  -0.10085
   7        3PX         0.08688  -0.00760   0.01959   0.02579  -0.27836
   8        3PY         0.03564   0.15403  -0.12643  -0.07331  -0.24898
   9        3PZ        -0.00627   0.09253   0.12829   0.57823  -0.12573
  10        4XX        -0.01963  -0.01036   0.00550  -0.00217  -0.01655
  11        4YY         0.02883   0.01091  -0.00566   0.00095   0.01130
  12        4ZZ         0.00018   0.00065   0.00182  -0.00092   0.00076
  13        4XY        -0.00830   0.02555  -0.02073   0.00521   0.01810
  14        4XZ         0.00229  -0.01498  -0.02587   0.02141  -0.00534
  15        4YZ         0.00250   0.00079   0.00181   0.00148  -0.00353
  16 2   H  1S          0.17698   0.19038  -0.12620   0.01488   0.05098
  17        2S          0.09225   0.10692  -0.07218   0.04091   0.52062
  18 3   H  1S          0.11031  -0.15344   0.11504  -0.02792  -0.05266
  19        2S          0.04741  -0.08120   0.06982  -0.05746  -0.10678
  20 4   N  1S          0.01993  -0.00045  -0.01316   0.01806   0.09953
  21        2S         -0.05219   0.00389   0.03111  -0.04268  -0.18803
  22        2PX        -0.36021  -0.04433  -0.02163   0.02583   0.13717
  23        2PY         0.17430  -0.23494   0.21778  -0.05103  -0.23121
  24        2PZ        -0.04243   0.30582   0.42471  -0.38094   0.10978
  25        3S         -0.02076  -0.01829   0.06106  -0.11143  -1.19428
  26        3PX        -0.15243  -0.02018  -0.01537   0.03852   0.22974
  27        3PY         0.10833  -0.16082   0.15475  -0.05431  -0.34214
  28        3PZ        -0.02557   0.19402   0.28407  -0.45511   0.19315
  29        4XX         0.00153   0.00877  -0.00349   0.00102   0.01122
  30        4YY         0.01461  -0.00453   0.00572   0.00208   0.02674
  31        4ZZ        -0.00038  -0.00339  -0.00337   0.00305   0.01363
  32        4XY         0.00208   0.02557  -0.01853  -0.00623  -0.01753
  33        4XZ         0.00305   0.00930   0.01538   0.02992  -0.00317
  34        4YZ        -0.00430   0.00607  -0.00344  -0.00067  -0.00175
  35 5   H  1S          0.14317  -0.15463   0.09916   0.06258   0.20331
  36        2S          0.06574  -0.09346   0.07027   0.13389   1.20008
  37 6   H  1S          0.05993   0.12526  -0.09224   0.00405   0.02290
  38        2S          0.03486   0.07243  -0.05645   0.01675   0.36451
                          11        12        13        14        15
                           V         V         V         V         V
     Eigenvalues --    -0.09035  -0.03729   0.03606   0.10026   0.32857
   1 1   C  1S         -0.02318  -0.13266  -0.01205   0.06159   0.02640
   2        2S          0.05142   0.26254  -0.00109   0.02220  -0.48449
   3        2PX        -0.11121   0.17924  -0.03952   0.12605   0.73462
   4        2PY         0.12305  -0.03929  -0.40490  -0.15945   0.34261
   5        2PZ         0.02400  -0.02886  -0.05083  -0.02106   0.09801
   6        3S          0.20730   2.12814   0.21376  -2.38613  -0.42638
   7        3PX        -0.23831   0.53387  -0.43071   2.55947  -0.07590
   8        3PY         0.23187  -0.04945  -1.44228  -0.58692  -0.67014
   9        3PZ         0.05696  -0.07912  -0.08462  -0.12798  -0.16776
  10        4XX        -0.00579  -0.00959  -0.02284   0.04380   0.00655
  11        4YY        -0.00036  -0.01392   0.01557  -0.03336  -0.02817
  12        4ZZ        -0.00139   0.00525   0.00547  -0.00725  -0.03157
  13        4XY        -0.03201   0.00817   0.00047   0.00486   0.03481
  14        4XZ        -0.00050  -0.00115   0.00509  -0.00297  -0.00441
  15        4YZ         0.00234  -0.00351   0.00380  -0.00412  -0.00295
  16 2   H  1S         -0.06825  -0.07315   0.06660  -0.07313   0.11562
  17        2S         -0.50120  -1.21109   1.79957   0.64324   0.19081
  18 3   H  1S          0.05547  -0.11689  -0.04381   0.01435  -0.14622
  19        2S          0.41582  -1.63524  -1.24888  -1.11163  -0.20611
  20 4   N  1S          0.07505   0.02989   0.01524  -0.06922  -0.06282
  21        2S         -0.13019  -0.05976  -0.03802   0.07503  -0.00222
  22        2PX         0.14918  -0.03318  -0.14366   0.32259  -0.00052
  23        2PY         0.29939  -0.01699   0.25128   0.04110   0.10218
  24        2PZ        -0.01063   0.03178  -0.03374   0.01604   0.04640
  25        3S         -1.06962  -0.29394  -0.34566   2.27570   0.52679
  26        3PX         0.24571  -0.17041  -0.33429   1.70686   0.98729
  27        3PY         0.53822  -0.00019   0.71514   0.26916  -0.00459
  28        3PZ        -0.01804   0.05054  -0.01975   0.02093  -0.01696
  29        4XX         0.02684   0.01661   0.00213  -0.00637  -0.17878
  30        4YY         0.00628  -0.00870   0.00253  -0.01402   0.04289
  31        4ZZ         0.01148   0.00715   0.00291  -0.03225   0.02931
  32        4XY         0.02598  -0.01214  -0.02094  -0.01079  -0.03581
  33        4XZ        -0.00048  -0.00043  -0.00412  -0.00209   0.00822
  34        4YZ         0.00205  -0.00409   0.00286  -0.00412  -0.01115
  35 5   H  1S         -0.07127   0.05037  -0.06300   0.04284   0.16537
  36        2S         -0.29278   0.20799  -0.85194   0.16071  -0.13847
  37 6   H  1S          0.19631   0.00240  -0.00901   0.02057  -0.37882
  38        2S          1.50367   0.02771   0.41566   0.87032   0.66625
                          16        17        18        19        20
                           V         V         V         V         V
     Eigenvalues --     0.33488   0.39345   0.44885   0.50465   0.56871
   1 1   C  1S          0.00658   0.03345  -0.06101   0.01459  -0.03557
   2        2S         -0.05399   0.03542  -0.83316   0.03617  -0.06259
   3        2PX         0.03914   0.57821  -0.02176  -0.00785   0.07050
   4        2PY         0.14506  -0.35165  -0.26889   0.03613  -0.43807
   5        2PZ        -0.97213  -0.03143  -0.00188   0.30511  -0.03408
   6        3S         -0.01963  -0.58162   2.05167   0.22668  -0.42090
   7        3PX         0.04018  -1.03720   0.11578  -0.08065  -0.07603
   8        3PY        -0.18728   1.14620   1.13255  -0.16151   1.21002
   9        3PZ         1.08102   0.14474   0.04162  -0.71881   0.01163
  10        4XX         0.01082   0.07496  -0.07735   0.04508  -0.08213
  11        4YY        -0.00380   0.02356  -0.19007  -0.00025   0.00469
  12        4ZZ        -0.00739  -0.03053   0.07913  -0.01667   0.03179
  13        4XY         0.00720  -0.10583  -0.00988   0.02715   0.05450
  14        4XZ         0.04213  -0.00402   0.01763   0.03947  -0.01211
  15        4YZ        -0.00123   0.01493  -0.02434   0.00270  -0.00666
  16 2   H  1S          0.01812  -0.12303  -0.62608   0.07523  -0.02715
  17        2S         -0.00427  -0.23838  -0.79074   0.03041  -0.70208
  18 3   H  1S         -0.01746   0.55003  -0.41749   0.00586  -0.16214
  19        2S         -0.00553   0.54477   0.27687  -0.10346   0.91333
  20 4   N  1S         -0.00540  -0.02693  -0.00628  -0.00396   0.03007
  21        2S         -0.02690   0.14691  -0.19749   0.00451  -0.33501
  22        2PX         0.04073   0.08066  -0.14590   0.13519  -0.12198
  23        2PY        -0.04491  -0.11487   0.10419  -0.10479  -0.32937
  24        2PZ        -0.22478  -0.09050  -0.09039  -0.90363  -0.05846
  25        3S          0.08229  -0.53427  -0.08239  -0.09128   0.56963
  26        3PX         0.03413   0.35213  -0.06688  -0.39421   0.74281
  27        3PY         0.03989  -0.05046  -0.37689   0.12392   0.30399
  28        3PZ         0.06346   0.04190   0.07795   1.23699   0.11201
  29        4XX        -0.03102  -0.08879  -0.06876  -0.02326  -0.05142
  30        4YY         0.00023   0.03551  -0.09167  -0.01999   0.11786
  31        4ZZ        -0.00216   0.04750   0.04826   0.00684  -0.12612
  32        4XY        -0.00397   0.08979   0.02570  -0.03577  -0.06551
  33        4XZ        -0.07159  -0.00277  -0.01146  -0.02397   0.01776
  34        4YZ        -0.00203   0.01887   0.01207   0.00186  -0.05376
  35 5   H  1S          0.02707  -0.31884  -0.33813  -0.02488   0.91647
  36        2S          0.03802   0.32402   0.31851  -0.03331  -1.09322
  37 6   H  1S         -0.06554   0.26413  -0.04775  -0.18912   0.28840
  38        2S          0.05687  -0.01248  -0.17070   0.06900   0.37380
                          21        22        23        24        25
                           V         V         V         V         V
     Eigenvalues --     0.60830   0.65793   0.70309   0.76831   0.96132
   1 1   C  1S          0.03368   0.01856   0.03008   0.01602   0.00119
   2        2S         -0.30781  -0.43517   0.05264  -1.30199   0.77313
   3        2PX        -0.02588   0.11776   0.23641  -0.52253  -0.14391
   4        2PY        -0.34261   0.48042  -0.61244  -0.08196   0.08815
   5        2PZ        -0.03066   0.05655  -0.07431   0.01449  -0.00251
   6        3S          1.85385   1.89708   0.57927   2.50921  -2.68669
   7        3PX        -0.91066  -0.72971  -0.97694   1.02158   0.59646
   8        3PY         0.81321  -1.12972   1.76708   0.37104   1.02722
   9        3PZ         0.24027  -0.09536   0.18002  -0.05478   0.09571
  10        4XX         0.09582   0.12570   0.09627  -0.12944  -0.01929
  11        4YY        -0.03994  -0.11842   0.02050   0.09537   0.04020
  12        4ZZ        -0.03590  -0.01687  -0.04967  -0.13500   0.06052
  13        4XY         0.07559  -0.06857   0.09563  -0.06963  -0.10828
  14        4XZ        -0.00423  -0.01810   0.00624  -0.01761  -0.03541
  15        4YZ         0.01748  -0.00047  -0.00380   0.01825   0.02239
  16 2   H  1S          0.20894  -0.37632   0.45924   0.53853  -0.33075
  17        2S         -0.77640   0.95643  -1.23663  -1.54360   0.22784
  18 3   H  1S          0.05117   0.16091  -0.39172   0.65375   0.45292
  19        2S          0.45268  -0.92382   1.54626  -1.43690   0.56968
  20 4   N  1S         -0.02510   0.01544  -0.00209  -0.00432  -0.04482
  21        2S         -0.01094  -0.34255  -0.11511  -0.20366  -1.25684
  22        2PX         0.38358   0.71325   0.48522  -0.09947  -0.13539
  23        2PY        -0.52368  -0.07476   0.67131   0.16022   0.26481
  24        2PZ         0.23077   0.06103  -0.00336  -0.04146   0.01413
  25        3S         -0.58349   0.06528  -0.16235   0.40616   3.62370
  26        3PX        -1.66437  -1.71645  -1.18102   0.35261   0.25213
  27        3PY         0.66674   0.28958  -1.47921  -0.40924  -1.25829
  28        3PZ        -0.44052  -0.09787   0.00192   0.08589  -0.10921
  29        4XX        -0.09688  -0.14054  -0.08701  -0.05440  -0.20229
  30        4YY        -0.12395   0.00623  -0.00207   0.01161  -0.28196
  31        4ZZ         0.09410  -0.06904  -0.02334  -0.02371  -0.07566
  32        4XY        -0.13725   0.09449  -0.04027   0.02345  -0.05945
  33        4XZ         0.00303   0.02084  -0.00287   0.00993   0.02849
  34        4YZ         0.01889  -0.00675  -0.00459  -0.02326  -0.04161
  35 5   H  1S         -0.10384   0.26237  -0.02205   0.06661   0.11852
  36        2S         -0.93848  -0.81702   0.37026   0.27169  -0.13826
  37 6   H  1S         -0.68155   0.45601   0.22595   0.06711  -0.54037
  38        2S          0.31905  -1.16404  -1.28824  -0.14039  -0.69931
                          26        27        28        29        30
                           V         V         V         V         V
     Eigenvalues --     1.07773   1.22148   1.30333   1.55885   1.69089
   1 1   C  1S          0.00572   0.00031   0.00697  -0.01930  -0.02033
   2        2S          0.16041  -0.00691   0.07490  -0.07575   0.04209
   3        2PX         0.08847   0.02564   0.05920  -0.02074   0.00305
   4        2PY         0.01428   0.02640  -0.02151   0.04627  -0.16857
   5        2PZ         0.08229  -0.19324  -0.06641  -0.00388  -0.02496
   6        3S         -3.02352  -0.41290  -1.09648   0.89869   0.70021
   7        3PX         2.17247   0.35646   0.72642  -0.37149   0.10500
   8        3PY        -1.90914  -0.41315  -0.91010   0.69871   0.01109
   9        3PZ        -0.20136   0.02641  -0.04809   0.08938   0.01588
  10        4XX        -0.10292  -0.03493  -0.04965   0.08163  -0.00586
  11        4YY         0.17992  -0.01761   0.13717   0.26767   0.35204
  12        4ZZ        -0.05300   0.05279  -0.07829  -0.36460  -0.37072
  13        4XY         0.08832   0.09063  -0.01217   0.02199  -0.33414
  14        4XZ         0.16474  -0.53214  -0.21089  -0.03189  -0.10115
  15        4YZ         0.10255   0.25685  -0.67093  -0.48274   0.42996
  16 2   H  1S          0.43467   0.07622   0.21867  -0.38669  -0.12206
  17        2S          0.66400   0.13556   0.38486  -0.33790  -0.13945
  18 3   H  1S         -0.37882  -0.09583  -0.19988   0.04903  -0.56985
  19        2S         -0.88138  -0.19617  -0.35469   0.23274   0.03746
  20 4   N  1S         -0.06621  -0.00903  -0.02425  -0.00674  -0.02126
  21        2S         -1.11113  -0.11088  -0.33144  -0.09750  -0.09685
  22        2PX        -0.07474  -0.01475   0.00372  -0.01370   0.05922
  23        2PY        -0.30678  -0.03683  -0.15480   0.04646  -0.10918
  24        2PZ         0.06028  -0.14164  -0.04584   0.01024  -0.00749
  25        3S          4.37921   0.53936   1.42981  -0.16385   0.35053
  26        3PX         1.87157   0.34131   0.59123  -0.61921  -0.68531
  27        3PY         1.66742   0.33874   0.79813  -0.34795  -0.04632
  28        3PZ        -0.08081  -0.00416  -0.04526  -0.08390  -0.07688
  29        4XX        -0.20233   0.00175  -0.04232   0.00691  -0.03738
  30        4YY        -0.17384  -0.07303  -0.16807   0.48966   0.41469
  31        4ZZ        -0.10757   0.02258   0.08735  -0.55334  -0.45658
  32        4XY         0.12854  -0.02086   0.12209  -0.20106   0.35453
  33        4XZ        -0.15591   0.55085   0.22545   0.00998   0.05636
  34        4YZ         0.25633   0.31086  -0.46884   0.49285  -0.40006
  35 5   H  1S         -0.52388  -0.11957  -0.28430  -0.20409  -0.23557
  36        2S         -0.25075   0.01075  -0.14469  -0.03566  -0.10670
  37 6   H  1S          0.42265   0.10541   0.13324  -0.27460  -0.56739
  38        2S          0.23435   0.08583   0.16789  -0.22558  -0.13827
                          31        32        33        34        35
                           V         V         V         V         V
     Eigenvalues --     1.75232   1.96060   2.10787   2.19726   2.42495
   1 1   C  1S         -0.02513   0.07295   0.01322   0.00951   0.00648
   2        2S         -0.22331   0.29531  -0.01735   0.00106  -0.56954
   3        2PX         0.11504  -0.18493   0.01843  -0.01087   0.85638
   4        2PY         0.24096   0.11742  -0.10854   0.01616   0.08939
   5        2PZ         0.01761   0.02297   0.02454  -0.17313  -0.01254
   6        3S         -0.14927  -0.75810  -1.24899  -0.34606  -1.93530
   7        3PX         0.08445   0.36636   0.34903   0.14697   1.29711
   8        3PY        -0.13880  -0.30100  -0.68971  -0.16381  -0.25006
   9        3PZ         0.04513   0.03949   0.02669  -0.29861  -0.04874
  10        4XX         0.19767  -0.60862   0.45837   0.07632  -0.77913
  11        4YY         0.04474   0.13752  -0.96130  -0.15733   0.33061
  12        4ZZ        -0.31593   0.78191   0.46278   0.11134   0.33694
  13        4XY         0.60210   0.15361  -0.10605  -0.07341  -0.65846
  14        4XZ        -0.04321  -0.06808  -0.20646   0.93190  -0.04055
  15        4YZ         0.24966   0.01139  -0.07641   0.00772   0.04172
  16 2   H  1S         -0.39536  -0.00322   0.84076   0.15183   0.16820
  17        2S          0.11604   0.30896   0.15017   0.05621   0.01838
  18 3   H  1S          0.34121   0.26121   0.13597   0.06634  -0.28422
  19        2S         -0.23605  -0.15420  -0.22280  -0.09870  -0.14630
  20 4   N  1S         -0.01251   0.01101  -0.03988  -0.00805  -0.05920
  21        2S         -0.34756   0.16054  -0.61167  -0.12530  -0.14462
  22        2PX        -0.16055   0.36637  -0.27686  -0.02892   0.39921
  23        2PY         0.02772   0.00640  -0.07972  -0.01760  -0.07929
  24        2PZ         0.01487  -0.00482  -0.00616   0.06943  -0.02535
  25        3S          0.60134   0.27324   1.63139   0.40390   2.33457
  26        3PX         0.55444  -0.35596   0.60431   0.15444   1.76917
  27        3PY         0.60397   0.28494   0.43774   0.10412   0.12331
  28        3PZ        -0.10664  -0.10682  -0.14097   0.36100  -0.00693
  29        4XX         0.13974  -0.38883   0.13483   0.03059   0.99017
  30        4YY        -0.00631   0.67747   0.23250   0.10819  -0.52210
  31        4ZZ        -0.24462  -0.02582  -0.60522  -0.16241  -0.44617
  32        4XY        -0.45339  -0.20128   0.10269  -0.09639  -0.66006
  33        4XZ        -0.03221  -0.04797  -0.15646   0.93350  -0.08174
  34        4YZ        -0.45281  -0.16861  -0.07433  -0.05629  -0.03639
  35 5   H  1S         -0.49388  -0.48972  -0.31939  -0.18098  -0.15896
  36        2S         -0.02932   0.08662  -0.05863   0.05694   0.21728
  37 6   H  1S          0.42068   0.06208  -0.20358  -0.01657   0.28896
  38        2S          0.10834  -0.08337   0.11320   0.02056   0.21887
                          36        37        38
                           V         V         V
     Eigenvalues --     2.60404   3.52966   3.90258
   1 1   C  1S          0.02484  -0.06414  -0.46366
   2        2S         -0.45001   0.73970   2.91973
   3        2PX         0.60238  -0.34730   0.26586
   4        2PY        -0.06841   0.02455  -0.01369
   5        2PZ        -0.01240   0.01558  -0.00397
   6        3S         -1.27175  -1.20149   1.67518
   7        3PX         0.56256   0.76538   0.17619
   8        3PY         0.21142  -0.25744   0.00369
   9        3PZ        -0.00116  -0.02642  -0.01997
  10        4XX        -0.69109  -0.02147  -2.16239
  11        4YY         0.29568  -0.35697  -1.80136
  12        4ZZ         0.40552  -0.27887  -1.71300
  13        4XY         0.74504  -0.03751   0.04575
  14        4XZ         0.10357  -0.01732   0.02080
  15        4YZ        -0.05877  -0.00608  -0.00969
  16 2   H  1S         -0.22278   0.11782   0.19942
  17        2S          0.05639   0.10144  -0.50681
  18 3   H  1S          0.47265   0.03898   0.23046
  19        2S         -0.06781  -0.20010  -0.53837
  20 4   N  1S         -0.07939  -0.48109   0.08537
  21        2S          0.00163   0.98614  -0.05027
  22        2PX         0.34221  -0.15108   0.32591
  23        2PY         0.06255  -0.01775  -0.00935
  24        2PZ        -0.00004   0.02158  -0.01135
  25        3S          1.78111   3.93273  -0.74771
  26        3PX         0.76747   0.39323   0.21054
  27        3PY        -0.15617   0.21686   0.07353
  28        3PZ        -0.00455  -0.08487   0.02477
  29        4XX         0.80675  -1.72497   0.64368
  30        4YY        -0.43352  -1.47037   0.23868
  31        4ZZ        -0.59839  -1.51637   0.20704
  32        4XY         0.80778  -0.09473   0.02507
  33        4XZ         0.02503   0.00405  -0.00368
  34        4YZ         0.06096  -0.02838   0.00504
  35 5   H  1S          0.23958  -0.01113  -0.02306
  36        2S         -0.12697  -0.43139   0.10525
  37 6   H  1S         -0.62066   0.27133  -0.03036
  38        2S          0.21781  -0.49666   0.20626
     Density Matrix:
                           1         2         3         4         5
   1 1   C  1S          2.05400
   2        2S         -0.07415   0.36052
   3        2PX        -0.02106   0.03604   0.42975
   4        2PY        -0.00241   0.00259  -0.00870   0.51925
   5        2PZ         0.00315  -0.00569  -0.00027   0.01676   0.22929
   6        3S         -0.14329   0.25725   0.15102  -0.00001  -0.00866
   7        3PX        -0.02387   0.04491   0.08449  -0.01527   0.00141
   8        3PY         0.00039  -0.00115  -0.00898   0.21399   0.00000
   9        3PZ         0.00270  -0.00527   0.00509   0.00071   0.10704
  10        4XX        -0.01858   0.00101  -0.02083  -0.01334  -0.00046
  11        4YY        -0.02272   0.00610   0.02698   0.01585   0.00016
  12        4ZZ        -0.01081  -0.02028   0.00401  -0.00138   0.00110
  13        4XY         0.00176  -0.00397  -0.00731   0.02140   0.00013
  14        4XZ         0.00066  -0.00166  -0.00135   0.00418  -0.01997
  15        4YZ        -0.00127   0.00280   0.00275  -0.00046   0.00112
  16 2   H  1S         -0.06415   0.12946   0.10206   0.27282   0.00888
  17        2S         -0.00900   0.02733   0.05535   0.14922   0.00435
  18 3   H  1S         -0.06867   0.13988   0.16254  -0.22102  -0.01585
  19        2S         -0.00960   0.02955   0.07520  -0.11272  -0.00253
  20 4   N  1S          0.01740  -0.03233   0.08141   0.00890  -0.00848
  21        2S         -0.03505   0.06306  -0.17911  -0.02376   0.02123
  22        2PX        -0.08261   0.17747  -0.33946  -0.02745  -0.00663
  23        2PY         0.00832  -0.02280   0.02055   0.02110   0.02175
  24        2PZ         0.00072   0.00010   0.01838  -0.02262   0.35397
  25        3S         -0.00937   0.01422  -0.15643  -0.04357   0.02599
  26        3PX        -0.03308   0.06826  -0.13967  -0.00743  -0.00656
  27        3PY         0.00252  -0.01122   0.02010  -0.02149   0.01642
  28        3PZ         0.00017   0.00050   0.01450  -0.02084   0.23219
  29        4XX        -0.00591   0.00874  -0.00018   0.00373   0.00157
  30        4YY         0.00267  -0.00678   0.00958  -0.00017   0.00048
  31        4ZZ         0.00185  -0.00364   0.00555  -0.00157  -0.00327
  32        4XY         0.00003  -0.00009   0.00074   0.02203   0.00073
  33        4XZ         0.00084  -0.00190   0.00292  -0.00038   0.01187
  34        4YZ        -0.00017   0.00057  -0.00016   0.00050   0.00071
  35 5   H  1S          0.01328  -0.03378   0.04143  -0.02900  -0.01491
  36        2S          0.00729  -0.01700   0.04032  -0.04581  -0.00382
  37 6   H  1S          0.01164  -0.02813   0.06143   0.03529  -0.00524
  38        2S          0.00053  -0.00347   0.04141   0.05100  -0.00280
                           6         7         8         9        10
   6        3S          0.22836
   7        3PX         0.05350   0.02268
   8        3PY         0.00027  -0.00895   0.09570
   9        3PZ        -0.00478   0.00178  -0.00350   0.05020
  10        4XX        -0.00536  -0.00289  -0.00583  -0.00024   0.00170
  11        4YY         0.01329   0.00523   0.00642   0.00011  -0.00157
  12        4ZZ        -0.01191  -0.00136  -0.00029   0.00073  -0.00022
  13        4XY        -0.00380  -0.00270   0.01201  -0.00048  -0.00043
  14        4XZ        -0.00116  -0.00074   0.00240  -0.00940  -0.00006
  15        4YZ         0.00274   0.00083  -0.00028   0.00054  -0.00010
  16 2   H  1S          0.12186   0.02527   0.11469   0.00039  -0.01124
  17        2S          0.03559   0.00945   0.06383   0.00034  -0.00655
  18 3   H  1S          0.14292   0.05205  -0.09806  -0.00327  -0.00041
  19        2S          0.04086   0.02069  -0.05129   0.00127  -0.00025
  20 4   N  1S          0.01514   0.00188   0.00762  -0.00410  -0.00755
  21        2S         -0.04059  -0.00455  -0.01679   0.01011   0.01564
  22        2PX         0.04285  -0.05680  -0.00739  -0.00993   0.01638
  23        2PY        -0.03135   0.00771  -0.05345   0.01419   0.00197
  24        2PZ         0.00048   0.00666  -0.01813   0.16581  -0.00065
  25        3S         -0.07320  -0.00202  -0.02938   0.01384   0.01538
  26        3PX         0.01600  -0.02507  -0.00104  -0.00602   0.00634
  27        3PY        -0.01661   0.00837  -0.04752   0.01080   0.00203
  28        3PZ         0.00108   0.00511  -0.01513   0.10892  -0.00034
  29        4XX         0.00572   0.00121   0.00239   0.00060   0.00008
  30        4YY        -0.00335   0.00191  -0.00157   0.00057  -0.00029
  31        4ZZ         0.00051  -0.00024  -0.00016  -0.00152  -0.00050
  32        4XY         0.00062  -0.00042   0.01173  -0.00008  -0.00071
  33        4XZ        -0.00122   0.00080  -0.00087   0.00566  -0.00007
  34        4YZ         0.00110  -0.00034   0.00146   0.00021  -0.00013
  35 5   H  1S         -0.03305   0.01595  -0.04378  -0.00295   0.00218
  36        2S         -0.00706   0.00982  -0.03446   0.00057   0.00027
  37 6   H  1S         -0.00892   0.01559   0.03499  -0.00213  -0.00308
  38        2S          0.01137   0.00625   0.03039  -0.00192  -0.00373
                          11        12        13        14        15
  11        4YY         0.00248
  12        4ZZ         0.00016   0.00135
  13        4XY         0.00025   0.00017   0.00238
  14        4XZ         0.00005  -0.00001   0.00029   0.00182
  15        4YZ         0.00019  -0.00011  -0.00010  -0.00013   0.00004
  16 2   H  1S          0.01678  -0.00621   0.01020   0.00120   0.00131
  17        2S          0.00850  -0.00102   0.00648   0.00098   0.00038
  18 3   H  1S          0.00489  -0.00522  -0.01487  -0.00226   0.00211
  19        2S          0.00137  -0.00051  -0.00771  -0.00139   0.00076
  20 4   N  1S          0.00593   0.00339  -0.00037   0.00061   0.00024
  21        2S         -0.01306  -0.00677   0.00115  -0.00157  -0.00058
  22        2PX        -0.01848  -0.01410   0.00027  -0.00026  -0.00055
  23        2PY        -0.00003  -0.00040  -0.02622  -0.00206   0.00018
  24        2PZ         0.00016   0.00168  -0.00141  -0.03147   0.00195
  25        3S         -0.01329  -0.00392  -0.00096  -0.00194  -0.00078
  26        3PX        -0.00743  -0.00551   0.00026   0.00027  -0.00028
  27        3PY        -0.00068  -0.00024  -0.01762  -0.00192   0.00021
  28        3PZ         0.00005   0.00111  -0.00153  -0.02072   0.00131
  29        4XX         0.00022  -0.00046   0.00057  -0.00013   0.00006
  30        4YY         0.00041   0.00045  -0.00058  -0.00002   0.00001
  31        4ZZ         0.00034   0.00031  -0.00006   0.00026   0.00000
  32        4XY         0.00078   0.00004   0.00212   0.00020  -0.00002
  33        4XZ         0.00010   0.00017  -0.00017  -0.00104   0.00006
  34        4YZ         0.00007   0.00002   0.00054  -0.00006   0.00001
  35 5   H  1S         -0.00029   0.00118  -0.01408   0.00106  -0.00005
  36        2S          0.00033   0.00106  -0.00880  -0.00024   0.00016
  37 6   H  1S          0.00423   0.00266   0.01181   0.00129  -0.00005
  38        2S          0.00430   0.00092   0.00601   0.00083   0.00012
                          16        17        18        19        20
  16 2   H  1S          0.21267
  17        2S          0.10206   0.05382
  18 3   H  1S         -0.03633  -0.03640   0.20207
  19        2S         -0.03527  -0.02285   0.08600   0.04059
  20 4   N  1S          0.01164   0.00762   0.01043   0.00891   2.05840
  21        2S         -0.03058  -0.01862  -0.02489  -0.01951  -0.11680
  22        2PX        -0.03178  -0.04825  -0.03867  -0.03608   0.00227
  23        2PY        -0.02913  -0.02218   0.02818   0.03022   0.00254
  24        2PZ        -0.00365  -0.00390   0.00423   0.00925  -0.00412
  25        3S         -0.05453  -0.02499  -0.02419  -0.01298  -0.18541
  26        3PX        -0.01273  -0.01947  -0.01921  -0.01597   0.00853
  27        3PY        -0.03337  -0.02205   0.03538   0.02738  -0.00476
  28        3PZ        -0.00532  -0.00431   0.00675   0.00818  -0.00222
  29        4XX         0.00561   0.00232   0.00088  -0.00083  -0.02042
  30        4YY        -0.00096   0.00050   0.00170   0.00178  -0.01860
  31        4ZZ        -0.00080  -0.00022   0.00111   0.00091  -0.00901
  32        4XY         0.01345   0.00794  -0.01079  -0.00610  -0.00150
  33        4XZ        -0.00023   0.00015   0.00031   0.00064  -0.00165
  34        4YZ         0.00115   0.00064  -0.00087  -0.00073   0.00155
  35 5   H  1S         -0.03531  -0.01604   0.03418   0.02629  -0.04280
  36        2S         -0.03004  -0.01570   0.03652   0.02324  -0.00128
  37 6   H  1S          0.03763   0.03241  -0.01803  -0.01245  -0.05354
  38        2S          0.04102   0.02536  -0.01484  -0.00982   0.00020
                          21        22        23        24        25
  21        2S          0.39590
  22        2PX        -0.00251   0.51727
  23        2PY        -0.01161   0.00751   0.54345
  24        2PZ         0.01355  -0.00847   0.01682   0.55316
  25        3S          0.41187  -0.07073   0.02112   0.01984   0.44516
  26        3PX        -0.01762   0.21955   0.00441  -0.00914  -0.04704
  27        3PY         0.00607  -0.00644   0.33206   0.01795   0.02924
  28        3PZ         0.00819  -0.00640   0.01732   0.36334   0.01296
  29        4XX         0.00849  -0.00026  -0.01029   0.00218   0.00796
  30        4YY         0.00389  -0.01775   0.01095   0.00018   0.00778
  31        4ZZ        -0.01638   0.00122  -0.00072  -0.00410  -0.01660
  32        4XY         0.00333  -0.00720  -0.02354  -0.00045   0.00190
  33        4XZ         0.00361  -0.00615   0.00325   0.01826   0.00494
  34        4YZ        -0.00314   0.00182  -0.01040   0.00153  -0.00421
  35 5   H  1S          0.08864  -0.10665   0.25531  -0.03271   0.12450
  36        2S         -0.00043  -0.04288   0.13069  -0.00507   0.01540
  37 6   H  1S          0.11618  -0.18472  -0.21250  -0.01142   0.13021
  38        2S         -0.00266  -0.05963  -0.08569  -0.00599  -0.00373
                          26        27        28        29        30
  26        3PX         0.09401
  27        3PY        -0.00288   0.20600
  28        3PZ        -0.00638   0.01606   0.23882
  29        4XX        -0.00060  -0.00614   0.00127   0.00074
  30        4YY        -0.00769   0.00729   0.00028   0.00000   0.00104
  31        4ZZ         0.00122  -0.00089  -0.00266  -0.00028  -0.00009
  32        4XY        -0.00309  -0.01564  -0.00084   0.00072  -0.00026
  33        4XZ        -0.00291   0.00246   0.01203   0.00009   0.00030
  34        4YZ         0.00088  -0.00654   0.00087   0.00014  -0.00032
  35 5   H  1S         -0.04847   0.16362  -0.01795  -0.00324   0.01020
  36        2S         -0.01830   0.08439  -0.00106  -0.00281   0.00434
  37 6   H  1S         -0.08328  -0.12493  -0.01025   0.00702   0.00320
  38        2S         -0.02516  -0.05443  -0.00538   0.00228   0.00009
                          31        32        33        34        35
  31        4ZZ         0.00082
  32        4XY        -0.00021   0.00214
  33        4XZ        -0.00028  -0.00003   0.00071
  34        4YZ         0.00014   0.00044  -0.00005   0.00024
  35 5   H  1S         -0.00388  -0.01076   0.00222  -0.00634   0.17276
  36        2S         -0.00006  -0.00742   0.00100  -0.00282   0.07657
  37 6   H  1S         -0.00477   0.01417   0.00156   0.00246  -0.03693
  38        2S         -0.00012   0.00670   0.00001   0.00153  -0.03259
                          36        37        38
  36        2S          0.04116
  37 6   H  1S         -0.03860   0.18169
  38        2S         -0.02056   0.05702   0.02574
    Full Mulliken population analysis:
                           1         2         3         4         5
   1 1   C  1S          2.05400
   2        2S         -0.01624   0.36052
   3        2PX         0.00000   0.00000   0.42975
   4        2PY         0.00000   0.00000   0.00000   0.51925
   5        2PZ         0.00000   0.00000   0.00000   0.00000   0.22929
   6        3S         -0.02640   0.20896   0.00000   0.00000   0.00000
   7        3PX         0.00000   0.00000   0.04814   0.00000   0.00000
   8        3PY         0.00000   0.00000   0.00000   0.12192   0.00000
   9        3PZ         0.00000   0.00000   0.00000   0.00000   0.06099
  10        4XX        -0.00147   0.00072   0.00000   0.00000   0.00000
  11        4YY        -0.00180   0.00433   0.00000   0.00000   0.00000
  12        4ZZ        -0.00086  -0.01441   0.00000   0.00000   0.00000
  13        4XY         0.00000   0.00000   0.00000   0.00000   0.00000
  14        4XZ         0.00000   0.00000   0.00000   0.00000   0.00000
  15        4YZ         0.00000   0.00000   0.00000   0.00000   0.00000
  16 2   H  1S         -0.00261   0.03966   0.01301   0.10358   0.00021
  17        2S         -0.00088   0.01363   0.00468   0.03758   0.00007
  18 3   H  1S         -0.00259   0.04123   0.04167   0.06425   0.00070
  19        2S         -0.00092   0.01451   0.01315   0.02235   0.00008
  20 4   N  1S          0.00000  -0.00068  -0.00364   0.00000  -0.00001
  21        2S         -0.00044   0.01180   0.05061   0.00000   0.00012
  22        2PX        -0.00242   0.04251   0.10529   0.00000  -0.00005
  23        2PY         0.00000   0.00000   0.00000   0.00217   0.00000
  24        2PZ         0.00000   0.00000   0.00015   0.00000   0.03635
  25        3S         -0.00063   0.00533   0.04636   0.00000   0.00015
  26        3PX        -0.00471   0.03960   0.02994   0.00000  -0.00006
  27        3PY         0.00000   0.00000   0.00000  -0.00578   0.00000
  28        3PZ         0.00000  -0.00001   0.00013   0.00000   0.06245
  29        4XX        -0.00046   0.00335   0.00008   0.00000   0.00002
  30        4YY         0.00000  -0.00080  -0.00164   0.00000   0.00000
  31        4ZZ         0.00000  -0.00043  -0.00095   0.00000   0.00001
  32        4XY         0.00000   0.00000   0.00000   0.00495   0.00000
  33        4XZ         0.00000   0.00002   0.00004   0.00000   0.00266
  34        4YZ         0.00000   0.00000   0.00000   0.00000   0.00000
  35 5   H  1S          0.00000  -0.00040  -0.00088  -0.00035   0.00004
  36        2S          0.00013  -0.00221  -0.00452  -0.00290   0.00005
  37 6   H  1S          0.00000  -0.00020  -0.00090  -0.00018   0.00000
  38        2S          0.00001  -0.00037  -0.00431  -0.00180   0.00000
                           6         7         8         9        10
   6        3S          0.22836
   7        3PX         0.00000   0.02268
   8        3PY         0.00000   0.00000   0.09570
   9        3PZ         0.00000   0.00000   0.00000   0.05020
  10        4XX        -0.00338   0.00000   0.00000   0.00000   0.00170
  11        4YY         0.00837   0.00000   0.00000   0.00000  -0.00052
  12        4ZZ        -0.00750   0.00000   0.00000   0.00000  -0.00007
  13        4XY         0.00000   0.00000   0.00000   0.00000   0.00000
  14        4XZ         0.00000   0.00000   0.00000   0.00000   0.00000
  15        4YZ         0.00000   0.00000   0.00000   0.00000   0.00000
  16 2   H  1S          0.04839   0.00416   0.05618   0.00001  -0.00193
  17        2S          0.02587   0.00172   0.03465   0.00001  -0.00247
  18 3   H  1S          0.05576   0.01768   0.03777   0.00019  -0.00012
  19        2S          0.02939   0.00785   0.02205  -0.00008  -0.00010
  20 4   N  1S          0.00086  -0.00021   0.00000  -0.00001  -0.00045
  21        2S         -0.01306   0.00233   0.00000   0.00010   0.00547
  22        2PX         0.00814   0.00669   0.00000  -0.00006   0.00654
  23        2PY         0.00000   0.00000  -0.01034   0.00000   0.00000
  24        2PZ         0.00000   0.00004   0.00000   0.03205   0.00001
  25        3S         -0.04235   0.00128   0.00000   0.00017   0.00596
  26        3PX         0.00903   0.00108   0.00000  -0.00007   0.00277
  27        3PY         0.00000   0.00000  -0.02731   0.00000   0.00000
  28        3PZ        -0.00001   0.00006   0.00000   0.06258   0.00000
  29        4XX         0.00217  -0.00051   0.00000   0.00001   0.00004
  30        4YY        -0.00095  -0.00088   0.00000   0.00000  -0.00005
  31        4ZZ         0.00014   0.00011   0.00000  -0.00001  -0.00009
  32        4XY         0.00000   0.00000   0.00197   0.00000   0.00000
  33        4XZ         0.00000   0.00000   0.00000   0.00095   0.00000
  34        4YZ         0.00000   0.00000   0.00000   0.00000   0.00000
  35 5   H  1S         -0.00295  -0.00314  -0.00486   0.00007   0.00004
  36        2S         -0.00208  -0.00387  -0.00766  -0.00003   0.00004
  37 6   H  1S         -0.00063  -0.00281  -0.00213   0.00000  -0.00004
  38        2S          0.00290  -0.00247  -0.00406   0.00001  -0.00045
                          11        12        13        14        15
  11        4YY         0.00248
  12        4ZZ         0.00005   0.00135
  13        4XY         0.00000   0.00000   0.00238
  14        4XZ         0.00000   0.00000   0.00000   0.00182
  15        4YZ         0.00000   0.00000   0.00000   0.00000   0.00004
  16 2   H  1S          0.00768  -0.00085   0.00191   0.00001   0.00004
  17        2S          0.00373  -0.00038   0.00026   0.00000   0.00000
  18 3   H  1S          0.00159  -0.00070   0.00445   0.00010   0.00011
  19        2S          0.00056  -0.00019   0.00051   0.00001   0.00001
  20 4   N  1S          0.00001   0.00000   0.00000   0.00000   0.00000
  21        2S         -0.00091  -0.00048   0.00000   0.00001   0.00000
  22        2PX        -0.00188  -0.00144   0.00000   0.00000   0.00000
  23        2PY         0.00000   0.00000   0.00485   0.00000   0.00000
  24        2PZ         0.00000   0.00000   0.00000   0.00581   0.00000
  25        3S         -0.00341  -0.00101   0.00000   0.00001   0.00000
  26        3PX        -0.00332  -0.00246   0.00000   0.00000   0.00000
  27        3PY         0.00000   0.00000   0.00362   0.00000   0.00000
  28        3PZ         0.00000   0.00000   0.00000   0.00425   0.00000
  29        4XX         0.00004  -0.00009   0.00000   0.00000   0.00000
  30        4YY         0.00004   0.00002   0.00000   0.00000   0.00000
  31        4ZZ         0.00001   0.00003   0.00000   0.00000   0.00000
  32        4XY         0.00000   0.00000  -0.00077   0.00000   0.00000
  33        4XZ         0.00000   0.00000   0.00000   0.00038   0.00000
  34        4YZ         0.00000   0.00000   0.00000   0.00000   0.00000
  35 5   H  1S          0.00000   0.00000   0.00023   0.00000   0.00000
  36        2S          0.00003   0.00009   0.00044   0.00000   0.00000
  37 6   H  1S          0.00001   0.00000   0.00008   0.00000   0.00000
  38        2S          0.00032   0.00006   0.00019   0.00000   0.00000
                          16        17        18        19        20
  16 2   H  1S          0.21267
  17        2S          0.06719   0.05382
  18 3   H  1S         -0.00057  -0.00509   0.20207
  19        2S         -0.00494  -0.00882   0.05661   0.04059
  20 4   N  1S          0.00000   0.00015   0.00000   0.00010   2.05840
  21        2S         -0.00035  -0.00245  -0.00008  -0.00163  -0.02595
  22        2PX        -0.00059  -0.00444  -0.00026  -0.00256   0.00000
  23        2PY        -0.00033  -0.00126  -0.00008  -0.00086   0.00000
  24        2PZ         0.00000  -0.00001   0.00000  -0.00005   0.00000
  25        3S         -0.00523  -0.00780  -0.00133  -0.00295  -0.03187
  26        3PX        -0.00259  -0.00729  -0.00274  -0.00535   0.00000
  27        3PY        -0.00419  -0.00509  -0.00203  -0.00369   0.00000
  28        3PZ        -0.00002  -0.00004  -0.00007  -0.00020   0.00000
  29        4XX         0.00021   0.00040   0.00001  -0.00010  -0.00103
  30        4YY        -0.00002   0.00007   0.00001   0.00014  -0.00094
  31        4ZZ         0.00000  -0.00003   0.00000   0.00007  -0.00045
  32        4XY         0.00045   0.00048   0.00010   0.00023   0.00000
  33        4XZ         0.00000   0.00000   0.00000   0.00000   0.00000
  34        4YZ         0.00000   0.00000   0.00000   0.00000   0.00000
  35 5   H  1S         -0.00014  -0.00130   0.00000   0.00023  -0.00084
  36        2S         -0.00244  -0.00434   0.00032   0.00162  -0.00009
  37 6   H  1S          0.00000   0.00042   0.00000  -0.00025  -0.00167
  38        2S          0.00053   0.00224  -0.00029  -0.00113   0.00002
                          21        22        23        24        25
  21        2S          0.39590
  22        2PX         0.00000   0.51727
  23        2PY         0.00000   0.00000   0.54345
  24        2PZ         0.00000   0.00000   0.00000   0.55316
  25        3S          0.31941   0.00000   0.00000   0.00000   0.44516
  26        3PX         0.00000   0.11401   0.00000   0.00000   0.00000
  27        3PY         0.00000   0.00000   0.17244   0.00000   0.00000
  28        3PZ         0.00000   0.00000   0.00000   0.18868   0.00000
  29        4XX         0.00540   0.00000   0.00000   0.00000   0.00533
  30        4YY         0.00247   0.00000   0.00000   0.00000   0.00521
  31        4ZZ        -0.01042   0.00000   0.00000   0.00000  -0.01113
  32        4XY         0.00000   0.00000   0.00000   0.00000   0.00000
  33        4XZ         0.00000   0.00000   0.00000   0.00000   0.00000
  34        4YZ         0.00000   0.00000   0.00000   0.00000   0.00000
  35 5   H  1S          0.01630   0.01163   0.05561   0.00174   0.04324
  36        2S         -0.00016   0.00360   0.02193   0.00021   0.00992
  37 6   H  1S          0.02843   0.04289   0.04402   0.00016   0.05153
  38        2S         -0.00110   0.00866   0.01110   0.00005  -0.00258
                          26        27        28        29        30
  26        3PX         0.09401
  27        3PY         0.00000   0.20600
  28        3PZ         0.00000   0.00000   0.23882
  29        4XX         0.00000   0.00000   0.00000   0.00074
  30        4YY         0.00000   0.00000   0.00000   0.00000   0.00104
  31        4ZZ         0.00000   0.00000   0.00000  -0.00009  -0.00003
  32        4XY         0.00000   0.00000   0.00000   0.00000   0.00000
  33        4XZ         0.00000   0.00000   0.00000   0.00000   0.00000
  34        4YZ         0.00000   0.00000   0.00000   0.00000   0.00000
  35 5   H  1S          0.01125   0.07588   0.00203  -0.00052   0.00349
  36        2S          0.00442   0.04074   0.00013  -0.00098   0.00172
  37 6   H  1S          0.03419   0.04576   0.00026   0.00236   0.00094
  38        2S          0.01015   0.01958   0.00013   0.00094   0.00004
                          31        32        33        34        35
  31        4ZZ         0.00082
  32        4XY         0.00000   0.00214
  33        4XZ         0.00000   0.00000   0.00071
  34        4YZ         0.00000   0.00000   0.00000   0.00024
  35 5   H  1S         -0.00045   0.00224   0.00011   0.00064   0.17276
  36        2S         -0.00002   0.00041   0.00001   0.00008   0.05040
  37 6   H  1S         -0.00065   0.00439   0.00003   0.00005  -0.00087
  38        2S         -0.00004   0.00044   0.00000   0.00001  -0.00536
                          36        37        38
  36        2S          0.04116
  37 6   H  1S         -0.00634   0.18169
  38        2S         -0.00877   0.03754   0.02574
     Gross orbital populations:
                           1
   1 1   C  1S          1.99172
   2        2S          0.75041
   3        2PX         0.76615
   4        2PY         0.86505
   5        2PZ         0.39305
   6        3S          0.52904
   7        3PX         0.09994
   8        3PY         0.31388
   9        3PZ         0.20709
  10        4XX         0.01215
  11        4YY         0.01739
  12        4ZZ        -0.02880
  13        4XY         0.01816
  14        4XZ         0.01243
  15        4YZ         0.00021
  16 2   H  1S          0.52909
  17        2S          0.19528
  18 3   H  1S          0.50868
  19        2S          0.17624
  20 4   N  1S          1.99172
  21        2S          0.78131
  22        2PX         0.85354
  23        2PY         0.84269
  24        2PZ         0.81835
  25        3S          0.82878
  26        3PX         0.32185
  27        3PY         0.51590
  28        3PZ         0.55917
  29        4XX         0.01733
  30        4YY         0.00989
  31        4ZZ        -0.02360
  32        4XY         0.01704
  33        4XZ         0.00492
  34        4YZ         0.00102
  35 5   H  1S          0.42589
  36        2S          0.13105
  37 6   H  1S          0.45809
  38        2S          0.08791
          Condensed to atoms (all electrons):
               1          2          3          4          5          6
     1  C    4.761157   0.387956   0.371285   0.478897  -0.034686  -0.016754
     2  H    0.387956   0.400859  -0.019423  -0.039975  -0.008225   0.003183
     3  H    0.371285  -0.019423   0.355885  -0.023325   0.002176  -0.001678
     4  N    0.478897  -0.039975  -0.023325   6.519962   0.304274   0.300081
     5  H   -0.034686  -0.008225   0.002176   0.304274   0.314732  -0.021333
     6  H   -0.016754   0.003183  -0.001678   0.300081  -0.021333   0.282499
 Mulliken charges:
               1
     1  C    0.052144
     2  H    0.275626
     3  H    0.315079
     4  N   -0.539915
     5  H    0.443063
     6  H    0.454002
 Sum of Mulliken charges =   1.00000
 Mulliken charges with hydrogens summed into heavy atoms:
               1
     1  C    0.642849
     4  N    0.357151
 Electronic spatial extent (au):  <R**2>=             68.3664
 Charge=              1.0000 electrons
 Dipole moment (field-independent basis, Debye):
    X=             -0.7114    Y=              0.3477    Z=             -0.5070  Tot=              0.9403
 Quadrupole moment (field-independent basis, Debye-Ang):
   XX=             -3.8565   YY=             -7.7021   ZZ=            -12.0527
   XY=             -0.4522   XZ=              0.4597   YZ=             -0.2799
 Traceless Quadrupole moment (field-independent basis, Debye-Ang):
   XX=              4.0139   YY=              0.1683   ZZ=             -4.1823
   XY=             -0.4522   XZ=              0.4597   YZ=             -0.2799
 Octapole moment (field-independent basis, Debye-Ang**2):
  XXX=             -4.3226  YYY=              1.3322  ZZZ=              0.0172  XYY=             -1.7030
  XXY=             -1.6317  XXZ=             -0.9023  XZZ=             -0.0467  YZZ=             -0.0566
  YYZ=             -0.5358  XYZ=              0.7690
 Hexadecapole moment (field-independent basis, Debye-Ang**3):
 XXXX=            -36.0656 YYYY=            -14.4220 ZZZZ=            -10.4666 XXXY=             -0.1281
 XXXZ=              0.4659 YYYX=             -0.5677 YYYZ=             -0.3209 ZZZX=              0.1270
 ZZZY=             -0.0649 XXYY=             -4.8552 XXZZ=            -10.0746 YYZZ=             -4.8828
 XXYZ=             -0.1471 YYXZ=              0.5157 ZZXY=              0.0138
 N-N= 3.858456386500D+01 E-N=-2.923810021904D+02  KE= 9.394199453310D+01
 Orbital energies and kinetic energies (alpha):
                                 1                 2
   1         O               -14.767463         21.958654
   2         O               -10.614400         15.876212
   3         O                -1.320815          2.015521
   4         O                -1.031063          1.611725
   5         O                -0.893470          1.261068
   6         O                -0.865194          1.448834
   7         O                -0.743807          1.336700
   8         O                -0.704392          1.462284
   9         V                -0.261488          1.538528
  10         V                -0.146941          1.155871
  11         V                -0.090349          1.141553
  12         V                -0.037294          1.055290
  13         V                 0.036060          1.128594
  14         V                 0.100257          1.237545
  15         V                 0.328569          2.109959
  16         V                 0.334877          1.992702
  17         V                 0.393451          1.855483
  18         V                 0.448852          1.625856
  19         V                 0.504653          2.629292
  20         V                 0.568710          2.182820
  21         V                 0.608301          2.443291
  22         V                 0.657926          2.856162
  23         V                 0.703091          3.184714
  24         V                 0.768310          2.578708
  25         V                 0.961319          2.409446
  26         V                 1.077731          2.353869
  27         V                 1.221476          2.706308
  28         V                 1.303331          2.695174
  29         V                 1.558845          2.976221
  30         V                 1.690886          3.240160
  31         V                 1.752322          3.373282
  32         V                 1.960597          3.671610
  33         V                 2.107865          3.791679
  34         V                 2.197255          3.712329
  35         V                 2.424951          4.562935
  36         V                 2.604036          4.689113
  37         V                 3.529664          9.871651
  38         V                 3.902576          9.951232
 Total kinetic energy from orbitals= 9.394199453310D+01
 Calling FoFJK, ICntrl=      2127 FMM=F ISym2X=0 I1Cent= 0 IOpClX= 0 NMat=1 NMatS=1 NMatT=0.
 -------------------------------------------------------------------
 Center     Atomic                   Forces (Hartrees/Bohr)
 Number     Number              X              Y              Z
 -------------------------------------------------------------------
      1        6          -0.018577820    0.003385171   -0.001559245
      2        1           0.029145585    0.031647238   -0.002884403
      3        1           0.005519111   -0.027732065    0.007145775
      4        7          -0.074619266    0.058853045   -0.033087190
      5        1           0.031406278   -0.053497783    0.028523086
      6        1           0.027126112   -0.012655607    0.001861976
 -------------------------------------------------------------------
 Cartesian Forces:  Max     0.074619266 RMS     0.032280728

 GradGradGradGradGradGradGradGradGradGradGradGradGradGradGradGradGradGrad
 Berny optimization.
 Search for a local minimum.
 Step number   1 out of a maximum of    2
 All quantities printed in internal units (Hartrees-Bohrs-Radians)
 Second derivative matrix not updated -- first step.
 The second derivative matrix:
                          X1        Y1        Z1        X2        Y2
           X1           1.16386
           Y1          -0.04276   0.78926
           Z1          -0.03508   0.04331   0.23539
           X2          -0.14490  -0.09282  -0.00182   0.11602
           Y2          -0.09004  -0.38072  -0.02132   0.09960   0.37832
           Z2          -0.00084  -0.02013  -0.05407   0.00308   0.02217
           X3          -0.24227   0.13563   0.02375   0.02891  -0.00956
           Y3           0.12554  -0.26527  -0.02451   0.02542  -0.00830
           Z3           0.02446  -0.02590  -0.08994   0.00051  -0.00086
           X4          -0.77649  -0.00423   0.02302  -0.00003   0.00000
           Y4           0.00730  -0.18258   0.00436  -0.03214   0.01046
           Z4           0.01049   0.00318  -0.14211  -0.00187   0.00033
           X5          -0.00015   0.02702  -0.00750   0.00000   0.00001
           Y5          -0.00003   0.01364  -0.00159  -0.00005   0.00016
           Z5           0.00017   0.00049   0.00884  -0.00018   0.00062
           X6          -0.00004  -0.02283  -0.00237   0.00001  -0.00002
           Y6          -0.00001   0.02566  -0.00024  -0.00002   0.00009
           Z6           0.00080  -0.00095   0.04189   0.00027  -0.00095
                          Z2        X3        Y3        Z3        X4
           Z2           0.03317
           X3          -0.00243   0.21328
           Y3          -0.00385  -0.15094   0.25122
           Z3           0.01123  -0.02558   0.02951   0.04639
           X4           0.00009   0.00008  -0.00004   0.00074   1.19632
           Y4           0.00544   0.02479   0.02296  -0.00723   0.07079
           Z4           0.00481   0.00438  -0.00196   0.03830   0.02964
           X5          -0.00018   0.00000  -0.00003   0.00022  -0.13219
           Y5          -0.00235   0.00006  -0.00039   0.00289   0.07477
           Z5          -0.00925   0.00022  -0.00154   0.01140  -0.02802
           X6           0.00027  -0.00001   0.00005  -0.00033  -0.28769
           Y6          -0.00128   0.00003  -0.00021   0.00158  -0.14129
           Z6           0.01411  -0.00033   0.00235  -0.01738  -0.02546
                          Y4        Z4        X5        Y5        Z5
           Y4           0.63197
           Z4          -0.04307   0.26046
           X5           0.08321  -0.02587   0.11097
           Y5          -0.24085   0.04449  -0.08578   0.24022
           Z5           0.05192  -0.06003   0.02641  -0.04925   0.03941
           X6          -0.15395  -0.01677   0.02136   0.01104   0.00140
           Y6          -0.24196  -0.00296  -0.02443  -0.01278  -0.00224
           Z6          -0.01141  -0.10144   0.00691   0.00581   0.00963
                          X6        Y6        Z6
           X6           0.26637
           Y6           0.16572   0.22921
           Z6           0.01781   0.00515   0.05319
 ITU=  0
     Eigenvalues ---    0.04557   0.04721   0.09712   0.12199   0.15089
     Eigenvalues ---    0.18392   0.32434   0.37454   0.58649   0.73590
     Eigenvalues ---    1.07967   2.02664
 Quadratic step=7.577D-01 exceeds max=3.000D-01 adjusted using Lamda=-1.031D-01.
 Angle between NR and scaled steps=  21.99 degrees.
 Angle between quadratic step and forces=  43.07 degrees.
 Linear search not attempted -- first point.
 TrRot= -0.019899  0.021960 -0.015311  0.018682 -0.003430 -0.019759
 Variable       Old X    -DE/DX   Delta X   Delta X   Delta X     New X
                                 (Linear)    (Quad)   (Total)
    X1        1.28141  -0.01858   0.00000  -0.02574  -0.04560   1.23581
    Y1       -0.03166   0.00339   0.00000   0.03693   0.05754   0.02587
    Z1       -0.00225  -0.00156   0.00000  -0.00969  -0.02069  -0.02294
    X2        1.90603   0.02915   0.00000   0.13782   0.11966   2.02569
    Y2        1.82804   0.03165   0.00000   0.05594   0.07569   1.90373
    Z2        0.11136  -0.00288   0.00000  -0.03078  -0.03896   0.07240
    X3        2.59450   0.00552   0.00000  -0.06502  -0.08612   2.50838
    Y3       -1.52046  -0.02773   0.00000  -0.09111  -0.07186  -1.59233
    Z3       -0.22867   0.00715   0.00000   0.06984   0.06309  -0.16558
    X4       -1.11001  -0.07462   0.00000  -0.04853  -0.06839  -1.17840
    Y4       -0.03205   0.05885   0.00000   0.04745   0.07065   0.03861
    Z4        0.04361  -0.03309   0.00000  -0.04692  -0.06621  -0.02260
    X5       -2.05313   0.03141   0.00000   0.01983   0.00285  -2.05028
    Y5        1.85170  -0.05350   0.00000  -0.09713  -0.07297   1.77873
    Z5       -0.41650   0.02852   0.00000   0.11915   0.09699  -0.31951
    X6       -2.57267   0.02713   0.00000   0.09883   0.07761  -2.49506
    Y6       -1.33695  -0.01266   0.00000  -0.08368  -0.05905  -1.39600
    Z6       -0.04687   0.00186   0.00000  -0.01033  -0.03422  -0.08109
         Item               Value     Threshold  Converged?
 Maximum Force            0.074619     0.000450     NO 
 RMS     Force            0.032281     0.000300     NO 
 Maximum Displacement     0.119660     0.001800     NO 
 RMS     Displacement     0.068076     0.001200     NO 
 Predicted change in Energy=-1.968925D-02
 GradGradGradGradGradGradGradGradGradGradGradGradGradGradGradGradGradGrad

 1\1\GINC-EAM\Force\RCAM-B3LYP\6-31G(d)\C1H4N1(1+)\DULIKAI\24-Jul-2014\
 0\\# force cam-b3lyp/6-31G* scf=(xqc, maxcycle=10000) nosymm pop=full\
 \[0] [0] iop(9/40=20)\\1,1\C,0.678093967,-0.0167560471,-0.0011887278\H
 ,1.0086260421,0.9673558026,0.0589275494\H,1.3729527389,-0.8045940221,-
 0.121004354\N,-0.5873899507,-0.0169590183,0.0230776509\H,-1.0864700838
 ,0.9798783209,-0.2204017253\H,-1.3613999326,-0.7074849401,-0.024800329
 1\\Version=EM64L-G09RevD.01\HF=-94.8897761\RMSD=6.220e-09\RMSF=3.228e-
 02\Dipole=-0.2677168,0.1128104,-0.1824856\Quadrupole=2.9842465,0.12515
 66,-3.1094031,-0.3361807,0.3417956,-0.2080866\PG=C01 [X(C1H4N1)]\\@


 HE WHO LOVES TO READ, AND KNOWS HOW TO REFLECT,
 HAS LAID BY A PERPETUAL FEAST FOR HIS OLD AGE.
 -- UNCLE ESEK, "SCRIBNER'S MONTHLY", SEPT. 1880
 Job cpu time:       0 days  0 hours  0 minutes  7.5 seconds.
 File lengths (MBytes):  RWF=      5 Int=      0 D2E=      0 Chk=      2 Scr=      1
 Normal termination of Gaussian 09 at Thu Jul 24 19:08:50 2014.
