           6
AU Step:          0 Time:        0.0000000000
C         -4.6519303176         0.5998128696         0.3398868982
N         -2.2608770381         0.2887926719         0.1639860874
H         -5.4359572810         1.6738523232         1.9355499129
H         -5.9049774807        -0.2096157926        -1.1054962128
H         -1.4584057807        -0.7055453144        -1.3031360550
H         -1.0294464523         1.0187814049         1.4814502350
           6
AU Step:          1 Time:       20.6703963588
C         -4.6545579576         0.6001546399         0.3400803019
N         -2.2587036306         0.2885100099         0.1638260867
H         -5.4357488040         1.6733179718         1.9347321492
H         -5.9045229176        -0.2091676112        -1.1047279716
H         -1.4581447462        -0.7054188379        -1.3029000947
H         -1.0292617552         1.0185965007         1.4811826065
           6
AU Step:          2 Time:       41.3407927177
C         -4.6622136496         0.6011503967         0.3406437925
N         -2.2523689825         0.2876861650         0.1633597492
H         -5.4352106563         1.6718315784         1.9324519490
H         -5.9032974304        -0.2079104381        -1.1025797270
H         -1.4573263711        -0.7050984353        -1.3022809283
H         -1.0286463169         1.0180882261         1.4804611783
           6
AU Step:          3 Time:       62.0111890765
C         -4.6743728778         0.6027319178         0.3415387704
N         -2.2423000094         0.2863766763         0.1626185139
H         -5.4345806012         1.6697009887         1.9291651029
H         -5.9016726142        -0.2060729409        -1.0994623610
H         -1.4558398233        -0.7047447712        -1.3015180010
H         -1.0274192243         1.0173792150         1.4795035568
           6
AU Step:          4 Time:       82.6815854354
C         -4.6903953470         0.6048159206         0.3427181176
N         -2.2290152549         0.2846490087         0.1616405689
H         -5.4342046419         1.6673637957         1.9255185151
H         -5.9001841757        -0.2039798589        -1.0959578207
H         -1.4535064099        -0.7045897325        -1.3009542892
H         -1.0253016250         1.0166416770         1.4786185502
           6
AU Step:          5 Time:      103.3519817942
C         -4.7095754190         0.6073106212         0.3441299033
N         -2.2130838304         0.2825772114         0.1604678268
H         -5.4344957805         1.6653426744         1.9222850424
H         -5.8994716608        -0.2020182024        -1.0927613490
H         -1.4501081089        -0.7049044649        -1.3009894808
H         -1.0219590334         1.0160746868         1.4781646112
           6
AU Step:          6 Time:      124.0223781531
C         -4.7311924839         0.6101222812         0.3457210859
N         -2.1950849498         0.2802366537         0.1591429446
H         -5.4358842296         1.6641884579         1.9202801858
H         -5.9002043079        -0.2005962362        -1.0906072491
H         -1.4454220752        -0.7059605341        -1.3020229494
H         -1.0170525786         1.0158765460         1.4784991869
           6
AU Step:          7 Time:      144.6927745119
C         -4.7545553542         0.6131609887         0.3474407828
N         -2.1755731229         0.2776994890         0.1577067576
H         -5.4387633612         1.6644132622         1.9202638933
H         -5.9029983064        -0.2000950608        -1.0901808214
H         -1.4392578804        -0.7079879560        -1.3043916996
H         -1.0102937276         1.0162147647         1.4799234995
           6
AU Step:          8 Time:      165.3631708708
C         -4.7790367808         0.6163451539         0.3492428072
N         -2.1550520949         0.2750312601         0.1561963601
H         -5.4434387530         1.6664200535         1.9228382654
H         -5.9083353669        -0.2008168313        -1.0920258295
H         -1.4314905741        -0.7111368742        -1.3083115201
H         -1.0014942389         1.0171985881         1.4826298885
           6
AU Step:          9 Time:      186.0335672296
C         -4.7986820687         0.6189007535         0.3506882562
N         -2.1373553625         0.2727303411         0.1548939763
H         -5.4606193865         1.6762471211         1.9365400621
H         -5.9292236335        -0.2057215195        -1.1029263465
H         -1.4194356817        -0.7168550760        -1.3152947965
H         -0.9875004302         1.0195176031         1.4877004841
           6
AU Step:         10 Time:      206.7039635885
C         -4.8189236121         0.6215335788         0.3521775688
N         -2.1191875323         0.2703683837         0.1535569912
H         -5.4786633685         1.6870424630         1.9516831967
H         -5.9523633012        -0.2113189423        -1.1151103422
H         -1.4120697488        -0.7233499486        -1.3233196237
H         -0.9720050959         1.0222586174         1.4936122058
           6
AU Step:         11 Time:      227.3743599473
C         -4.8395423735         0.6242151878         0.3536949375
N         -2.1007950548         0.2679831894         0.1522124399
H         -5.4970232097         1.6980470299         1.9672116956
H         -5.9758158705        -0.2170158753        -1.1275426682
H         -1.4033760293        -0.7303406892        -1.3319720362
H         -0.9554827926         1.0251397559         1.4998373527
           6
AU Step:         12 Time:      248.0447563062
C         -4.8603518172         0.6269218340         0.3552275201
N         -2.0823822951         0.2656052815         0.1508814055
H         -5.5152000589         1.7085585878         1.9820316853
H         -5.9987493257        -0.2222716541        -1.1392604255
H         -1.3935888857        -0.7375288799        -1.3407727733
H         -0.9384304813         1.0278618696         1.5058340147
           6
AU Step:         13 Time:      268.7151526650
C         -4.8811889615         0.6296330278         0.3567645414
N         -2.0641179851         0.2632581963         0.1495786522
H         -5.5327763247         1.7179837985         1.9952598575
H         -6.0204688694        -0.2266323373        -1.1494517432
H         -1.3829625582        -0.7445809526        -1.3492248540
H         -0.9213203959         1.0301457320         1.5110997911
           6
AU Step:         14 Time:      289.3855490239
C         -4.9019074503         0.6323307968         0.3582967300
N         -2.0461420339         0.2609593076         0.1483130302
H         -5.5494329095         1.7258715110         2.0062229140
H         -6.0404487407        -0.2297569395        -1.1575039475
H         -1.3717482097        -0.7511824114        -1.3568637758
H         -0.9045619083         1.0317598961         1.5152182565
           6
AU Step:         15 Time:      310.0559453827
C         -4.9223725760         0.6349988330         0.3598158537
N         -2.0285717997         0.2587209269         0.1470883801
H         -5.5649549185         1.7319290538         2.0144837568
H         -6.0583443897        -0.2314303470        -1.1630266305
H         -1.3601749009        -0.7570677811        -1.3633010400
H         -0.8884748548         1.0325402946         1.5178923711
           6
AU Step:         16 Time:      330.7263417416
C         -4.9424579640         0.6376220965         0.3613143662
N         -2.0115073401         0.2565514838         0.1459046938
H         -5.5792289931         1.7360251127         2.0198469664
H         -6.0739901863        -0.2315657140        -1.1658557446
H         -1.3484359627        -0.7620428086        -1.3682566267
H         -0.8732747230         1.0324014565         1.5189635075
           6
AU Step:         17 Time:      351.3967381004
C         -4.9620435544         0.6401863538         0.3627851612
N         -1.9950354574         0.2544566632         0.1447593676
H         -5.5922350838         1.7381828488         2.0223496128
H         -6.0873873389        -0.2301992476        -1.1660441728
H         -1.3366809944        -0.7659980837        -1.3715788311
H         -0.8590688160         1.0313398028         1.5184166708
           6
AU Step:         18 Time:      372.0671344593
C         -4.9810146251         0.6426779396         0.3642214156
N         -1.9792325296         0.2524404061         0.1436483964
H         -5.6040346944         1.7385659591         2.0222411595
H         -6.0986851704        -0.2274793793        -1.1638424937
H         -1.3250131357        -0.7689140442        -1.3732512383
H         -0.8458618065         1.0294299606         1.5163735641
           6
AU Step:         19 Time:      392.7375308181
C         -4.9992617299         0.6450838407         0.3656165165
N         -1.9641661940         0.2505057602         0.1425674844
H         -5.6147566132         1.7374589448         2.0199543404
H         -6.1081573840        -0.2236512969        -1.1596716221
H         -1.3134908134        -0.7708581371        -1.3733879766
H         -0.8335693696         1.0268149030         1.5130749254
           6
AU Step:         20 Time:      413.4079271770
C         -5.0166815398         0.6473917303         0.3669640433
N         -1.9498959833         0.2486555571         0.1415130198
H         -5.6245805695         1.7352419488         2.0160676584
H         -6.1161736447        -0.2190368663        -1.1540874616
H         -1.3021333383        -0.7719747819        -1.3722182303
H         -0.8220385041         1.0236908396         1.5088537949
           6
AU Step:         21 Time:      434.0783235358
C         -5.0331785907         0.6495899518         0.3682578057
N         -1.9364730658         0.2468929144         0.1404828897
H         -5.6337188925         1.7323599773         2.0112594357
H         -6.1231664282        -0.2140097380        -1.1477372175
H         -1.2909295958        -0.7724690726        -1.3700614831
H         -0.8110731597         1.0202878275         1.5041014417
           6
AU Step:         22 Time:      454.7487198947
C         -5.0486679000         0.6516678502         0.3694919301
N         -1.9239392638         0.2452215428         0.1394770885
H         -5.6423962985         1.7292866091         2.0062533476
H         -6.1295932787        -0.2089656530        -1.1413073768
H         -1.2798492375        -0.7725852951        -1.3672950962
H         -0.8004634840         1.0168474030         1.4992282273
           6
AU Step:         23 Time:      475.4191162535
C         -5.0630782587         0.6536162633         0.3706609993
N         -1.9123256185         0.2436458353         0.1384980450
H         -5.6508284597         1.7264833662         2.0017564094
H         -6.1358957528        -0.2042889857        -1.1354651905
H         -1.2688555403        -0.7725819000        -1.3643165193
H         -0.7900161903         1.0135991170         1.4946227113
           6
AU Step:         24 Time:      496.0895126123
C         -5.0763558088         0.6554279166         0.3717602208
N         -1.9016508341         0.2421707195         0.1375505953
H         -5.6592007468         1.7243576338         1.9983949340
H         -6.1424578469        -0.2003178930        -1.1307976629
H         -1.2579189035        -0.7727048152        -1.3615032506
H         -0.7795829180         1.0107383539         1.4906131647
           6
AU Step:         25 Time:      516.7599089712
C         -5.0884673116         0.6570977978         0.3727856301
N         -1.8919199901         0.2408012724         0.1366415547
H         -5.6676492506         1.7232235976         1.9966545363
H         -6.1495684073        -0.1973120140        -1.1277551287
H         -1.2470296136        -0.7731619405        -1.3591746586
H         -0.7690829964         1.0084081976         1.4874362643
           6
AU Step:         26 Time:      537.4303053300
C         -5.0994024088         0.6586233694         0.3737342988
N         -1.8831239175         0.2395421478         0.1357789093
H         -5.6762466166         1.7232717269         1.9968332139
H         -6.1573928165        -0.1954274297        -1.1266073719
H         -1.2362082731        -0.7741018603        -1.3575603131
H         -0.7585172554         1.0066878600         1.4852173554
           6
AU Step:         27 Time:      558.1007016889
C         -5.1091742578         0.6600048421         0.3746045091
N         -1.8752395240         0.2383969203         0.1349707566
H         -5.6849949809         1.7245520318         1.9990152213
H         -6.1659587219        -0.1947032622        -1.1274200960
H         -1.2255122979        -0.7755998186        -1.3567792652
H         -0.7479707859         1.0055892723         1.4839650082
           6
AU Step:         28 Time:      578.7710980477
C         -5.1178181812         0.6612451395         0.3753958618
N         -1.8682312114         0.2373674715         0.1342241692
H         -5.6938272982         1.7269741779         2.0030704877
H         -6.1751584589        -0.1950624820        -1.1300561828
H         -1.2150373365        -0.7776530166        -1.3568332459
H         -0.7376041946         1.0050621847         1.4835804273
           6
AU Step:         29 Time:      599.4414944066
C         -5.1253883757         0.6623495777         0.3761092837
N         -1.8620533026         0.2364535582         0.1335442103
H         -5.7026168452         1.7303244696         2.0086800435
H         -6.1847677014        -0.1963267712        -1.1342014712
H         -1.2049131791        -0.7801858194        -1.3576146645
H         -0.7276350486         1.0050065462         1.4838795051
           6
AU Step:         30 Time:      620.1118907654
C         -5.1319531171         0.6633253967         0.3767469172
N         -1.8566532142         0.2356526526         0.1329332732
H         -5.7111931589         1.7342963310         2.0153821605
H         -6.1944767160        -0.1982424563        -1.1394099237
H         -1.1952947366        -0.7830637762        -1.3589276141
H         -0.7183127720         1.0052897997         1.4846233684
           6
AU Step:         31 Time:      640.7822871243
C         -5.1375891586         0.6641811521         0.3773118994
N         -1.8519750023         0.2349600891         0.1323908462
H         -5.7193616739         1.7385287543         2.0226307463
H         -6.2039286149        -0.2005127395        -1.1451598939
H         -1.1863493716        -0.7861140750        -1.3605182661
H         -0.7098909253         1.0057662468         1.4855524064
           6
AU Step:         32 Time:      661.4526834831
C         -5.1423760898         0.6649260632         0.3778080608
N         -1.8479628594         0.2343694705         0.1319136835
H         -5.7269239925         1.7426464489         2.0298568079
H         -6.2127585194        -0.2028309593        -1.1509122768
H         -1.1782425610        -0.7891489041        -1.3621094744
H         -0.7026007490         1.0062956895         1.4864189153
           6
AU Step:         33 Time:      682.1230798420
C         -5.1463912742         0.6655693987         0.3782395995
N         -1.8445642255         0.2338732585         0.1314963074
H         -5.7336962687         1.7462964256         2.0365245301
H         -6.2206287696        -0.2049106335        -1.1561631655
H         -1.1711236927        -0.7919886742        -1.3634349732
H         -0.6966288824         1.0067592728         1.4870147375
           6
AU Step:         34 Time:      702.7934762008
C         -5.1497057796         0.6661199459         0.3786107556
N         -1.8417322422         0.2334634386         0.1311317100
H         -5.7395240342         1.7491775639         2.0421767709
H         -6.2272569418        -0.2065094221        -1.1604859669
H         -1.1651137795        -0.7944821635        -1.3642688830
H         -0.6921012153         1.0070711289         1.4871914691
           6
AU Step:         35 Time:      723.4638725597
C         -5.1523814551         0.6665855960         0.3789255340
N         -1.8394274310         0.2331321738         0.1308121317
H         -5.7442927566         1.7510616338         2.0464677096
H         -6.2324354954        -0.2074459583        -1.1635610779
H         -1.1602961166        -0.7965218833        -1.3644480786
H         -0.6890735485         1.0071853380         1.4868724313
           6
AU Step:         36 Time:      744.1342689185
C         -5.1544691602         0.6669730800         0.3791874801
N         -1.8376185339         0.2328723823         0.1305298326
H         -5.7479340878         1.7518057105         2.0491821694
H         -6.2360430447        -0.2076095174        -1.1651930733
H         -1.1567105578        -0.7980537295        -1.3638860213
H         -0.6875292299         1.0070980810         1.4860561949
           6
AU Step:         37 Time:      764.8046652774
C         -5.1560080157         0.6672878152         0.3793995315
N         -1.8362825546         0.2326781947         0.1302777761
H         -5.7504282342         1.7513567819         2.0502433233
H         -6.2380482571        -0.2069633546        -1.1653168005
H         -1.1543515868        -0.7990805965        -1.3625777478
H         -0.6873831857         1.0068453859         1.4848124118
           6
AU Step:         38 Time:      785.4750616362
C         -5.1570255390         0.6675338881         0.3795639282
N         -1.8354040706         0.2325452702         0.1300501927
H         -5.7518030094         1.7497497260         2.0497098641
H         -6.2385074214        -0.2055426115        -1.1639939583
H         -1.1531700390        -0.7996603450        -1.3605964903
H         -0.6884915410         1.0064969983         1.4832708937
           6
AU Step:         39 Time:      806.1454579951
C         -5.1575385369         0.6677141026         0.3796821851
N         -1.8349739193         0.2324709621         0.1298429933
H         -5.7521300243         1.7470995922         2.0477646654
H         -6.2375566271        -0.2034476194        -1.1614015659
H         -1.1530781562        -0.7998985544        -1.3580827665
H         -0.6906658214         1.0061470656         1.4816051596
           6
AU Step:         40 Time:      826.8158543539
C         -5.1575546392         0.6678301405         0.3797551165
N         -1.8349873962         0.2324543336         0.1296540194
H         -5.7515184438         1.7435890881         2.0446960065
H         -6.2353993698        -0.2008333114        -1.1578135737
H         -1.1539574594        -0.7999369474        -1.3552272267
H         -0.6936904966         1.0059024629         1.4800119348
           6
AU Step:         41 Time:      847.4862507128
C         -5.1570743968         0.6678827904         0.3797829050
N         -1.8354421366         0.2324960127         0.1294830925
H         -5.7501065859         1.7394519000         2.0408721839
H         -6.2322901051        -0.1978952327        -1.1535763771
H         -1.1556688065        -0.7999384630        -1.3522487125
H         -0.6973422160         1.0058698972         1.4786885676
           6
AU Step:         42 Time:      868.1566470716
C         -5.1560938513         0.6678722283         0.3797652191
N         -1.8363358775         0.2325978960         0.1293318580
H         -5.7480516677         1.7349524993         2.0367107374
H         -6.2285143901        -0.1948527234        -1.1490793677
H         -1.1580637879        -0.8000702812        -1.3493695507
H         -0.7014090223         1.0061429822         1.4778104439
           6
AU Step:         43 Time:      888.8270434305
C         -5.1546074511         0.6677983527         0.3797013636
N         -1.8376643348         0.2327627182         0.1292034133
H         -5.7455181589         1.7303634407         2.0326434535
H         -6.2243664974        -0.1919300644        -1.1447217100
H         -1.1609964236        -0.8004864785        -1.3467904505
H         -0.7057074395         1.0067907494         1.4775109627
           6
AU Step:         44 Time:      909.4974397893
C         -5.1526111220         0.6676611463         0.3795904660
N         -1.8394194280         0.2329935204         0.1291017504
H         -5.7426654469         1.7259415930         2.0290797302
H         -6.2201259369        -0.1893368172        -1.1408776844
H         -1.1643339668        -0.8013121071        -1.3446677497
H         -0.7100955811         1.0078489600         1.4778663762
           6
AU Step:         45 Time:      930.1678361482
C         -5.1501052349         0.6674610319         0.3794316901
N         -1.8415880517         0.2332930808         0.1290310728
H         -5.7396358050         1.7219052419         2.0263709330
H         -6.2160348406        -0.1872490326        -1.1378634221
H         -1.1679656315        -0.8026306627        -1.3430957182
H         -0.7144807750         1.0093153168         1.4788874097
           6
AU Step:         46 Time:      950.8382325070
C         -5.1470971611         0.6671991890         0.3792244603
N         -1.8441515358         0.2336633716         0.1289950705
H         -5.7365438720         1.7184144621         2.0247795068
H         -6.2122785682        -0.1857933094        -1.1359086187
H         -1.1718082610        -0.8044765083        -1.3420961597
H         -0.7188208801         1.0111492445         1.4805187602
           6
AU Step:         47 Time:      971.5086288658
C         -5.1436030952         0.6668778160         0.3789686761
N         -1.8470858252         0.2341051332         0.1289962766
H         -5.7334689384         1.7155571921         2.0244570220
H         -6.2089719688        -0.1850357325        -1.1351367937
H         -1.1758082941        -0.8068332845        -1.3416167801
H         -0.7231195570         1.0132761233         1.4826462584
           6
AU Step:         48 Time:      992.1790252247
C         -5.1396489129         0.6665002691         0.3786648967
N         -1.8503623189         0.2346176122         0.1290355835
H         -5.7304509861         1.7133427878         2.0254333293
H         -6.2061530601        -0.1849771372        -1.1355567434
H         -1.1799400175        -0.8096384387        -1.3415382762
H         -0.7274164172         1.0155953549         1.4851105730
           6
AU Step:         49 Time:     1012.8494215835
C         -5.1352699381         0.6660710828         0.3783144531
N         -1.8539492036         0.2351985099         0.1291120016
H         -5.7274910746         1.7117040711         2.0276191819
H         -6.2037850449        -0.1855554045        -1.1370663767
H         -1.1842005771        -0.8127930952        -1.3416890342
H         -0.7317738645         1.0179909629         1.4877252311
           6
AU Step:         50 Time:     1033.5198179424
C         -5.1305096724         0.6655958826         0.3779194875
N         -1.8578130783         0.2358441271         0.1292226618
H         -5.7245558959         1.7105073268         2.0308213000
H         -6.2017661837        -0.1866543203        -1.1394682440
H         -1.1886027002        -0.8161757499        -1.3418650946
H         -0.7362625098         1.0203433510         1.4902965833
           6
AU Step:         51 Time:     1054.1902143012
C         -5.1254176899         0.6650811558         0.3774829044
N         -1.8619206336         0.2365496756         0.1293630492
H         -5.7215857385         1.7095686908         2.0348085926
H         -6.1999459390        -0.1881175832        -1.1424942448
H         -1.1931663289        -0.8196510801        -1.3418525648
H         -0.7409471931         1.0225406965         1.4926430713
           6
AU Step:         52 Time:     1074.8606106601
C         -5.1200470768         0.6645340955         0.3770084460
N         -1.8662401905         0.2373097201         0.1295274198
H         -5.7185039160         1.7086728724         2.0392999072
H         -6.1981449568        -0.1897657839        -1.1458357894
H         -1.1979101926        -0.8230924486        -1.3414498498
H         -0.7458751272         1.0244887496         1.4946117793
           6
AU Step:         53 Time:     1095.5310070189
C         -5.1144516854         0.6639623841         0.3765006735
N         -1.8707429388         0.2381186607         0.1297093074
H         -5.7152271431         1.7075933432         2.0439586391
H         -6.1961762064        -0.1914141681        -1.1491753885
H         -1.2028444965        -0.8264019750        -1.3404869451
H         -0.7510672144         1.0261182336         1.4960908390
           6
AU Step:         54 Time:     1116.2014033778
C         -5.1086834700         0.6633738252         0.3759646698
N         -1.8754037682         0.2389711819         0.1299020355
H         -5.7116762686         1.7061129845         2.0484631603
H         -6.1938647391        -0.1928891262        -1.1522160694
H         -1.2079655809        -0.8295148469        -1.3388397332
H         -0.7565130988         1.0273893567         1.4970168440
           6
AU Step:         55 Time:     1136.8717997366
C         -5.1027902035         0.6627759854         0.3754057197
N         -1.8802016536         0.2398626446         0.1300992001
H         -5.7077856042         1.7040416683         2.0525025807
H         -6.1910643904        -0.1940419471        -1.1547060783
H         -1.2132527975        -0.8324112291        -1.3364386113
H         -0.7621701222         1.0282932503         1.4973770143
           6
AU Step:         56 Time:     1157.5421960955
C         -5.0968136916         0.6621758344         0.3748288469
N         -1.8851195893         0.2407893708         0.1302950642
H         -5.7035106747         1.7012306556         2.0558320519
H         -6.1876702709        -0.1947589817        -1.1564572258
H         -1.2186678474        -0.8351132707        -1.3332708519
H         -0.7679659398         1.0288504937         1.4972063544
           6
AU Step:         57 Time:     1178.2125924543
C         -5.0907885955         0.6615794327         0.3742384077
N         -1.8901441164         0.2417488131         0.1304848425
H         -5.6988335063         1.6975820354         2.0583213878
H         -6.1836266663        -0.1949678749        -1.1573563244
H         -1.2241563990        -0.8376777525        -1.3293771314
H         -0.7738043219         1.0291070778         1.4965804587
           6
AU Step:         58 Time:     1198.8829888132
C         -5.0847419235         0.6609918471         0.3736379300
N         -1.8952645037         0.2427396222         0.1306648841
H         -5.6937647806         1.6930519577         2.0599294415
H         -6.1789304227        -0.1946399149        -1.1573697809
H         -1.2296516006        -0.8401959125        -1.3248431375
H         -0.7795735390         1.0291282655         1.4956047345
           6
AU Step:         59 Time:     1219.5533851720
C         -5.0786931001         0.6604171293         0.3730300233
N         -1.9004716780         0.2437615840         0.1308327146
H         -5.6883436297         1.6876493278         2.0607032955
H         -6.1736300432        -0.1937888015        -1.1565419036
H         -1.2350792355        -0.8427849990        -1.3197869688
H         -0.7851563756         1.0289911017         1.4944013033
           6
AU Step:         60 Time:     1240.2237815309
C         -5.0726545634         0.6598584190         0.3724163597
N         -1.9057570019         0.2448154401         0.1309869536
H         -5.6826352568         1.6814304597         2.0607711361
H         -6.1678209229        -0.1924662493        -1.1549875201
H         -1.2403639827        -0.8455775447        -1.3143436800
H         -0.7904408699         1.0287762744         1.4930947512
           6
AU Step:         61 Time:     1260.8941778897
C         -5.0666328253         0.6593180503         0.3717977237
N         -1.9111110339         0.2459025976         0.1311270964
H         -5.6767266337         1.6744902529         2.0603293384
H         -6.1616371858        -0.1907548449        -1.1528797996
H         -1.2454362240        -0.8487094491        -1.3086484310
H         -0.7953305818         1.0285602692         1.4917983250
           6
AU Step:         62 Time:     1281.5645742486
C         -5.0606299068         0.6587977573         0.3711741222
N         -1.9165224044         0.2470247619         0.1312531945
H         -5.6707206135         1.6669506005         2.0596251361
H         -6.1552407589        -0.1887587011        -1.1504341602
H         -1.2502386427        -0.8523080998        -1.3028200655
H         -0.7997533259         1.0284086198         1.4906019442
           6
AU Step:         63 Time:     1302.2349706074
C         -5.0546450587         0.6582988988         0.3705449533
N         -1.9219769328         0.2481835320         0.1313654687
H         -5.6647287922         1.6589467925         2.0589357220
H         -6.1488083532        -0.1865925043        -1.1478893052
H         -1.2547319137        -0.8564818535        -1.2969468578
H         -0.8036674020         1.0283710250         1.4895633120
           6
AU Step:         64 Time:     1322.9053669663
C         -5.0486766398         0.6578227013         0.3699092197
N         -1.9274570998         0.2493800085         0.1314639067
H         -5.6588636025         1.6506128649         2.0585450755
H         -6.1425172660        -0.1843697014        -1.1454866917
H         -1.2588987834        -0.8613121115        -1.2910760259
H         -0.8070645818         1.0284788438         1.4887030348
           6
AU Step:         65 Time:     1343.5757633251
C         -5.0427239918         0.6573704867         0.3692657841
N         -1.9329419381         0.2506144691         0.1315479002
H         -5.6532302500         1.6420670290         2.0587207860
H         -6.1365311749        -0.1821907628        -1.1434502119
H         -1.2627460534        -0.8668488385        -1.2852081347