           6
ANG Step:          0 Time:        0.0000000000
C         -2.4616955000         0.3174073000         0.1798604000
N         -1.1964046000         0.1528225000         0.0867777000
H         -2.8765847000         0.8857645000         1.0242489000
H         -3.1247795000        -0.1109239000        -0.5850034000
H         -0.7717551000        -0.3733585000        -0.6895899000
H         -0.5447596000         0.5391159000         0.7839497000
           6
ANG Step:          1 Time:       20.6703963588
C         -2.4630859872         0.3175881571         0.1799627449
N         -1.1952544823         0.1526729217         0.0866930312
H         -2.8764743787         0.8854817334         1.0238161581
H         -3.1245389556        -0.1106867326        -0.5845968643
H         -0.7716169665        -0.3732915715        -0.6894650352
H         -0.5446618625         0.5390180529         0.7838080771
           6
ANG Step:          2 Time:       41.3407927177
C         -2.4671372049         0.3181150889         0.1802609313
N         -1.1919023309         0.1522369617         0.0864462561
H         -2.8761896032         0.8846951679         1.0226095281
H         -3.1238904557        -0.1100214653        -0.5834600622
H         -0.7711839011        -0.3731220218        -0.6891373864
H         -0.5443361866         0.5387490856         0.7834263138
           6
ANG Step:          3 Time:       62.0111890765
C         -2.4735715914         0.3189519938         0.1807345331
N         -1.1865740598         0.1515440102         0.0860540113
H         -2.8758561924         0.8835677084         1.0208702041
H         -3.1230306400        -0.1090491036        -0.5818104231
H         -0.7703972538        -0.3729348708        -0.6887336627
H         -0.5436868372         0.5383738931         0.7829195623
           6
ANG Step:          4 Time:       82.6815854354
C         -2.4820503169         0.3200548006         0.1813586168
N         -1.1795440705         0.1506297679         0.0855365050
H         -2.8756572433         0.8823309191         1.0189405129
H         -3.1222429922        -0.1079414923        -0.5799559003
H         -0.7691624647        -0.3728528278        -0.6884353592
H         -0.5425662519         0.5379836048         0.7824512370
           6
ANG Step:          5 Time:      103.3519817942
C         -2.4921999738         0.3213749393         0.1821057016
N         -1.1711135237         0.1495334199         0.0849159166
H         -2.8758113072         0.8812613878         1.0172294328
H         -3.1218659456        -0.1069034284        -0.5782644003
H         -0.7673641612        -0.3730193770        -0.6884539819
H         -0.5407974286         0.5376835665         0.7822110228
           6
ANG Step:          6 Time:      124.0223781531
C         -2.5036392319         0.3228628057         0.1829477192
N         -1.1615889264         0.1482948501         0.0842148192
H         -2.8765460428         0.8806506027         1.0161685084
H         -3.1222536458        -0.1061509563        -0.5771244998
H         -0.7648844190        -0.3735782248        -0.6890008699
H         -0.5382010445         0.5375787149         0.7823880726
           6
ANG Step:          7 Time:      144.6927745119
C         -2.5160023304         0.3244708204         0.1838577436
N         -1.1512637123         0.1469522404         0.0834548217
H         -2.8780696137         0.8807695640         1.0161598868
H         -3.1237321661        -0.1058857457        -0.5768988439
H         -0.7616224676        -0.3746510903        -0.6902543585
H         -0.5346244146         0.5377576925         0.7831417864
           6
ANG Step:          8 Time:      165.3631708708
C         -2.5289573434         0.3261558081         0.1848113338
N         -1.1404044520         0.1455402745         0.0826555538
H         -2.8805437245         0.8818315122         1.0175221859
H         -3.1265564169        -0.1062676902        -0.5778751802
H         -0.7575121861        -0.3763174260        -0.6923286382
H         -0.5299679257         0.5382783094         0.7845739458
           6
ANG Step:          9 Time:      186.0335672296
C         -2.5393531820         0.3275081731         0.1855762325
N         -1.1310397445         0.1443226806         0.0819663620
H         -2.8896353241         0.8870317725         1.0247728644
H         -3.1376100115        -0.1088631394        -0.5836434853
H         -0.7511330118        -0.3793433681        -0.6960240289
H         -0.5225627211         0.5395054793         0.7872571894
           6
ANG Step:         10 Time:      206.7039635885
C         -2.5500645455         0.3289014043         0.1863643428
N         -1.1214257428         0.1430727866         0.0812588600
H         -2.8991837882         0.8927444214         1.0327862661
H         -3.1498549962        -0.1118251680        -0.5900909782
H         -0.7472351280        -0.3827803066        -0.7002705845
H         -0.5143629434         0.5409559616         0.7903855378
           6
ANG Step:         11 Time:      227.3743599473
C         -2.5609755240         0.3303204506         0.1871672997
N         -1.1116928629         0.1418105961         0.0805473540
H         -2.9088993977         0.8985677873         1.0410035938
H         -3.1622655614        -0.1148398551        -0.5966698817
H         -0.7426346098        -0.3864796472        -0.7048492441
H         -0.5056197171         0.5424805945         0.7936797436
           6
ANG Step:         12 Time:      248.0447563062
C         -2.5719874074         0.3317527461         0.1879783075
N         -1.1019492501         0.1405522615         0.0798430010
H         -2.9185181720         0.9041302642         1.0488459946
H         -3.1744014232        -0.1176210935        -0.6028706518
H         -0.7374554765        -0.3902834739        -0.7095063935
H         -0.4965960225         0.5439210750         0.7968530405
           6
ANG Step:         13 Time:      268.7151526650
C         -2.5830139493         0.3331874481         0.1887916641
N         -1.0922841936         0.1393102375         0.0791536136
H         -2.9278191313         0.9091178709         1.0558460418
H         -3.1858949107        -0.1199286676        -0.6082636649
H         -0.7318322661        -0.3940152701        -0.7139790420
H         -0.4875417553         0.5451296429         0.7996395694
           6
ANG Step:         14 Time:      289.3855490239
C         -2.5939777013         0.3346150460         0.1896024634
N         -1.0827717299         0.1380937180         0.0784838753
H         -2.9366334163         0.9132918686         1.0616474415
H         -3.1964678033        -0.1215821359        -0.6125247079
H         -0.7258978885        -0.3975086116        -0.7180213853
H         -0.4786735456         0.5459838217         0.8018189674
           6
ANG Step:         15 Time:      310.0559453827
C         -2.6048073794         0.3360269099         0.1904063491
N         -1.0734739624         0.1369092179         0.0778358184
H         -2.9448473097         0.9164973822         1.0660188912
H         -3.2059377728        -0.1224676650        -0.6154471859
H         -0.7197735572        -0.4006230151        -0.7214278388
H         -0.4701606436         0.5463967909         0.8032340479
           6
ANG Step:         16 Time:      330.7263417416
C         -2.6154361089         0.3374150812         0.1911993277
N         -1.0644438393         0.1357611980         0.0772094386
H         -2.9524008247         0.9186649232         1.0688569794
H         -3.2142171718        -0.1225392982        -0.6169442885
H         -0.7135615787        -0.4032556863        -0.7240502224
H         -0.4621170803         0.5463233209         0.8038008688
           6
ANG Step:         17 Time:      351.3967381004
C         -2.6258003570         0.3387720277         0.1919776389
N         -1.0557272944         0.1346526667         0.0766033581
H         -2.9592833514         0.9198067480         1.0701813229
H         -3.2213066396        -0.1218161953        -0.6170440005
H         -0.7073411174        -0.4053487277        -0.7258082572
H         -0.4545996381         0.5457615180         0.8035114953
           6
ANG Step:         18 Time:      372.0671344593
C         -2.6358394153         0.3400905181         0.1927376720
N         -1.0473647452         0.1335857094         0.0760154574
H         -2.9655274364         0.9200094812         1.0701239319
H         -3.2272851945        -0.1203769030        -0.6158789221
H         -0.7011667525        -0.4068917876        -0.7266932570
H         -0.4476107896         0.5447508730         0.8024303298
           6
ANG Step:         19 Time:      392.7375308181
C         -2.6454953672         0.3413636661         0.1934759276
N         -1.0393919838         0.1325619389         0.0754434634
H         -2.9712012315         0.9194236744         1.0689137993
H         -3.2322976741        -0.1183511690        -0.6136717919
H         -0.6950694021        -0.4079205572        -0.7267656158
H         -0.4411059122         0.5433670441         0.8006847654
           6
ANG Step:         20 Time:      413.4079271770
C         -2.6547135336         0.3425849487         0.1941890081
N         -1.0318405135         0.1315828536         0.0748854648
H         -2.9763998453         0.9182504907         1.0668570558
H         -3.2365396966        -0.1159093175        -0.6107167814
H         -0.6890592852        -0.4085114602        -0.7261466127
H         -0.4350040410         0.5417138610         0.7984510394
           6
ANG Step:         21 Time:      434.0783235358
C         -2.6634433969         0.3437481974         0.1948736377
N         -1.0247374115         0.1306501033         0.0743403434
H         -2.9812356375         0.9167254171         1.0643126539
H         -3.2402401182        -0.1132490758        -0.6073563769
H         -0.6831305200        -0.4087730276        -0.7250053112
H         -0.4292014306         0.5399130645         0.7959362024
           6
ANG Step:         22 Time:      454.7487198947
C         -2.6716399864         0.3448477739         0.1955267082
N         -1.0181048091         0.1297656515         0.0738080964
H         -2.9858275230         0.9150990606         1.0616635462
H         -3.2436410610        -0.1105798609        -0.6039538518
H         -0.6772670469        -0.4088345299        -0.7235414023
H         -0.4235870321         0.5380924703         0.7933574083
           6
ANG Step:         23 Time:      475.4191162535
C         -2.6792656198         0.3458788297         0.1961453529
N         -1.0119591327         0.1289318230         0.0732900088
H         -2.9902896305         0.9136156484         1.0592838690
H         -3.2469761867        -0.1081050752        -0.6008623000
H         -0.6714494329        -0.4088327333        -0.7219652073
H         -0.4180585623         0.5363735514         0.7909202743
           6
ANG Step:         24 Time:      496.0895126123
C         -2.6862917967         0.3468375154         0.1967270359
N         -1.0063102801         0.1281512254         0.0727886401
H         -2.9947200540         0.9124907593         1.0575050528
H         -3.2504486973        -0.1060036634        -0.5983923507
H         -0.6656620140        -0.4088977772        -0.7204764896
H         -0.4125375124         0.5348597007         0.7887985136
           6
ANG Step:         25 Time:      516.7599089712
C         -2.6927009279         0.3477211784         0.1972696592
N         -1.0011609393         0.1274265452         0.0723075965
H         -2.9991908097         0.9118906532         1.0565840740
H         -3.2542114438        -0.1044130208        -0.5967823110
H         -0.6598996500        -0.4091396774        -0.7192442518
H         -0.4069811932         0.5336266351         0.7871173703
           6
ANG Step:         26 Time:      537.4303053300
C         -2.6984875322         0.3485284761         0.1977716730
N         -0.9965062581         0.1267602451         0.0718511042
H         -3.0037403399         0.9119161221         1.0566786261
H         -3.2583519428        -0.1034157417        -0.5961749443
H         -0.6541732432        -0.4096370616        -0.7183899770
H         -0.4013900439         0.5327162717         0.7859431743
           6
ANG Step:         27 Time:      558.1007016889
C         -2.7036585720         0.3492595200         0.1982321685
N         -0.9923340168         0.1261542168         0.0714234482
H         -3.0083697748         0.9125936303         1.0578332947
H         -3.2628848248        -0.1030325288        -0.5966050193
H         -0.6485131769        -0.4104297470        -0.7179766642
H         -0.3958090926         0.5321349241         0.7852804607
           6
ANG Step:         28 Time:      578.7710980477
C         -2.7082327392         0.3499158571         0.1986509343
N         -0.9886253775         0.1256094560         0.0710283712
H         -3.0130436359         0.9138753748         1.0599792493
H         -3.2677531159        -0.1032226197        -0.5979999764
H         -0.6429700661        -0.4115162526        -0.7180052296
H         -0.3903233287         0.5318560014         0.7850769492
           6
ANG Step:         29 Time:      599.4414944066
C         -2.7122387136         0.3505003006         0.1990284609
N         -0.9853561689         0.1251258339         0.0706685525
H         -3.0176948638         0.9156482728         1.0629476984
H         -3.2728381080        -0.1038916527        -0.6001935685
H         -0.6376125927        -0.4128565541        -0.7184187385
H         -0.3850478839         0.5318265588         0.7852352144
           6
ANG Step:         30 Time:      620.1118907654
C         -2.7157126251         0.3510166818         0.1993658820
N         -0.9824985652         0.1247020129         0.0703452585
H         -3.0222332535         0.9177500913         1.0664943059
H         -3.2779758972        -0.1049053897        -0.6029497629
H         -0.6325227321        -0.4143795033        -0.7191135215
H         -0.3801147476         0.5319764500         0.7856288499
           6
ANG Step:         31 Time:      640.7822871243
C         -2.7186950898         0.3514695281         0.1996648577
N         -0.9800229621         0.1243355241         0.0700582184
H         -3.0265558455         0.9199897933         1.0703300923
H         -3.2829776267        -0.1061067718        -0.6059925161
H         -0.6277890489        -0.4159936518        -0.7199552583
H         -0.3756580982         0.5322285750         0.7861204756
           6
ANG Step:         32 Time:      661.4526834831
C         -2.7212282247         0.3518637181         0.1999274150
N         -0.9778998275         0.1240229822         0.0698057148
H         -3.0305576521         0.9221687834         1.0741539594
H         -3.2876502109        -0.1073335209        -0.6090365460
H         -0.6234991095        -0.4175996142        -0.7207972895
H         -0.3718003031         0.5325087440         0.7865790124
           6
ANG Step:         33 Time:      682.1230798420
C         -2.7233529688         0.3522041565         0.2001557754
N         -0.9761013479         0.1237603981         0.0695848489
H         -3.0341413864         0.9241002679         1.0776823661
H         -3.2918149680        -0.1084340370        -0.6118151966
H         -0.6197319666        -0.4191023559        -0.7214987132
H         -0.3686401274         0.5327540617         0.7868943079
           6
ANG Step:         34 Time:      702.7934762008
C         -2.7251069295         0.3524954935         0.2003521828
N         -0.9746027269         0.1235435308         0.0693919122
H         -3.0372253071         0.9256249006         1.0806734031
H         -3.2953224456        -0.1092800795        -0.6141027246
H         -0.6165516575        -0.4204218535        -0.7219399993
H         -0.3662441892         0.5329190888         0.7869878303
           6
ANG Step:         35 Time:      723.4638725597
C         -2.7265228360         0.3527419050         0.2005187564
N         -0.9733830733         0.1233682329         0.0692227987
H         -3.0397488063         0.9266219075         1.0829440700
H         -3.2980628182        -0.1097756731        -0.6157300032
H         -0.6140022601        -0.4215012268        -0.7220348255
H         -0.3646420169         0.5329795257         0.7868190027
           6
ANG Step:         36 Time:      744.1342689185
C         -2.7276276019         0.3529469527         0.2006573723
N         -0.9724258462         0.1232307572         0.0690734124
H         -3.0416757157         0.9270156559         1.0843805003
H         -3.2999718510        -0.1098622249        -0.6165936180
H         -0.6121048641        -0.4223118449        -0.7217373976
H         -0.3638247987         0.5329333513         0.7863870690
           6
ANG Step:         37 Time:      764.8046652774
C         -2.7284419292         0.3531135034         0.2007695850
N         -0.9717188764         0.1231279976         0.0689400299
H         -3.0429955612         0.9267780931         1.0849420388
H         -3.3010329638        -0.1095202902        -0.6166590916
H         -0.6108565505        -0.4228552395        -0.7210450891
H         -0.3637475154         0.5327996308         0.7857288874
           6
ANG Step:         38 Time:      785.4750616362
C         -2.7289803794         0.3532437196         0.2008565800
N         -0.9712540027         0.1230576570         0.0688195979
H         -3.0437230609         0.9259276758         1.0846597443
H         -3.3012759430        -0.1087684654        -0.6159590737
H         -0.6102313023        -0.4231620292        -0.7199966527
H         -0.3643340318         0.5326152720         0.7849131511
           6
ANG Step:         39 Time:      806.1454579951
C         -2.7292518461         0.3533390849         0.2009191589
N         -0.9710263765         0.1230183348         0.0687099527
H         -3.0438961097         0.9245252853         1.0836303895
H         -3.3007728044        -0.1076598434        -0.6145872387
H         -0.6101826800        -0.4232880842        -0.7186664474
H         -0.3654846114         0.5324300956         0.7840316826
           6
ANG Step:         40 Time:      826.8158543539
C         -2.7292603671         0.3534004896         0.2009577525
N         -0.9710335081         0.1230095354         0.0686099521
H         -3.0435724752         0.9226676066         1.0820065252
H         -3.2996312329        -0.1062764111        -0.6126885550
H         -0.6106479872        -0.4233084009        -0.7171553608
H         -0.3670852006         0.5323006574         0.7831885843
           6
ANG Step:         41 Time:      847.4862507128
C         -2.7290062338         0.3534283507         0.2009724576
N         -0.9712741464         0.1230315910         0.0685195014
H         -3.0428253522         0.9204783009         1.0799830454
H         -3.2979858810        -0.1047216468        -0.6104463272
H         -0.6115535931        -0.4233092029        -0.7155791990
H         -0.3690176073         0.5322834244         0.7824882886
           6
ANG Step:         42 Time:      868.1566470716
C         -2.7284873515         0.3534227615         0.2009630986
N         -0.9717470937         0.1230855053         0.0684394716
H         -3.0417379363         0.9180973206         1.0777809027
H         -3.2959878586        -0.1031116203        -0.6080666123
H         -0.6128209626        -0.4233789581        -0.7140556122
H         -0.3711696685         0.5324279348         0.7820236055
           6
ANG Step:         43 Time:      888.8270434305
C         -2.7277007823         0.3533836682         0.2009293077
N         -0.9724500830         0.1231727255         0.0683715016
H         -3.0403972612         0.9156688954         1.0756285888
H         -3.2937928883        -0.1015650157        -0.6057606391
H         -0.6143728466        -0.4235992002        -0.7126908112
H         -0.3734442929         0.5327707184         0.7818651269
           6
ANG Step:         44 Time:      909.4974397893
C         -2.7266443705         0.3533110617         0.2008706232
N         -0.9733788383         0.1232948608         0.0683177039
H         -3.0388876711         0.9133289544         1.0737427477
H         -3.2915488804        -0.1001927284        -0.6037264683
H         -0.6161389984        -0.4240361041        -0.7115675263
H         -0.3757663974         0.5333306994         0.7820532036
           6
ANG Step:         45 Time:      930.1678361482
C         -2.7253183122         0.3532051657         0.2007866026
N         -0.9745264246         0.1234533813         0.0682803029
H         -3.0372844536         0.9111930094         1.0723093139
H         -3.2893839655        -0.0990879204        -0.6021313895
H         -0.6180607926        -0.4247338536        -0.7107356430
H         -0.3780869421         0.5341066619         0.7825935113
           6
ANG Step:         46 Time:      950.8382325070
C         -2.7237265081         0.3530666044         0.2006769413
N         -0.9758829619         0.1236493307         0.0682612513
H         -3.0356482732         0.9093457683         1.0714671674
H         -3.2873962317        -0.0983175848        -0.6010969521
H         -0.6200942245        -0.4257106330        -0.7102066994
H         -0.3803836268         0.5350771347         0.7834567848
           6
ANG Step:         47 Time:      971.5086288658
C         -2.7218775280         0.3528965412         0.2005415862
N         -0.9774357210         0.1238831009         0.0682618896
H         -3.0340210884         0.9078337661         1.0712965158
H         -3.2856464546        -0.0979166924        -0.6006885198
H         -0.6222109509        -0.4269577853        -0.7099530227
H         -0.3826583887         0.5362026305         0.7845826083
           6
ANG Step:         48 Time:      992.1790252247
C         -2.7197850649         0.3526967519         0.2003808330
N         -0.9791695668         0.1241542931         0.0682826899
H         -3.0324240568         0.9066619538         1.0718131554
H         -3.2841547524        -0.0978856851        -0.6009107477
H         -0.6243973648        -0.4284422090        -0.7099114802
H         -0.3849321891         0.5374299150         0.7858866674
           6
ANG Step:         49 Time:     1012.8494215835
C         -2.7174678112         0.3524696363         0.2001953863
N         -0.9810676644         0.1244616909         0.0683231286
H         -3.0308577391         0.9057947823         1.0729698588
H         -3.2829016528        -0.0981916910        -0.6017096112
H         -0.6266519558        -0.4301115813        -0.7099912579
H         -0.3872380510         0.5386976161         0.7872702849
           6
ANG Step:         50 Time:     1033.5198179424
C         -2.7149487871         0.3522181712         0.1999863795
N         -0.9831123389         0.1248033368         0.0683816875
H         -3.0293045094         0.9051614925         1.0746643467
H         -3.2818333174        -0.0987732122        -0.6029806246
H         -0.6289814590        -0.4319016050        -0.7100844250
H         -0.3896133397         0.5399424463         0.7886309859
           6
ANG Step:         51 Time:     1054.1902143012
C         -2.7122542260         0.3519457895         0.1997553496
N         -0.9852859635         0.1251766970         0.0684559772
H         -3.0277327698         0.9046647877         1.0767743310
H         -3.2808700854        -0.0995475376        -0.6045819153
H         -0.6313964273        -0.4337406706        -0.7100777946
H         -0.3920923674         0.5411052315         0.7898726939
           6
ANG Step:         52 Time:     1074.8606106601
C         -2.7094122199         0.3516562977         0.1995042771
N         -0.9875717746         0.1255788952         0.0685429585
H         -3.0261019396         0.9041907410         1.0791510324
H         -3.2799170467        -0.1004197278        -0.6063501845
H         -0.6339067719        -0.4355617644        -0.7098646870
H         -0.3947001178         0.5421360968         0.7909144893
           6
ANG Step:         53 Time:     1095.5310070189
C         -2.7064512664         0.3513537610         0.1992355754
N         -0.9899545263         0.1260069682         0.0686392092
H         -3.0243679460         0.9036194787         1.0816163271
H         -3.2788752288        -0.1012920151        -0.6081174243
H         -0.6365178930        -0.4373130903        -0.7093551398
H         -0.3974476520         0.5429983825         0.7916971740
           6
ANG Step:         54 Time:     1116.2014033778
C         -2.7033988582         0.3510423091         0.1989519345
N         -0.9924209311         0.1264581030         0.0687411965
H         -3.0224889042         0.9028361067         1.0840000171
H         -3.2776520530        -0.1020725294        -0.6097264833
H         -0.6392278541        -0.4389603512        -0.7084834728
H         -0.4003294899         0.5436710319         0.7921871947
           6
ANG Step:         55 Time:     1136.8717997366
C         -2.7002802759         0.3507259459         0.1986561508
N         -0.9949598626         0.1269298447         0.0688455315
H         -3.0204300533         0.9017400133         1.0861375863
H         -3.2761701723        -0.1026825759        -0.6110441393
H         -0.6420257287        -0.4404930506        -0.7072128538
H         -0.4033230577         0.5441493518         0.7923777887
           6
ANG Step:         56 Time:     1157.5421960955
C         -2.6971176420         0.3504083596         0.1983508829
N         -0.9975623221         0.1274202471         0.0689491784
H         -3.0181678580         0.9002524895         1.0878994665
H         -3.2743740817        -0.1030620143        -0.6119708066
H         -0.6448912497        -0.4419229095        -0.7055365477
H         -0.4063900723         0.5444442323         0.7922874793
           6
ANG Step:         57 Time:     1178.2125924543
C         -2.6939292985         0.3500927575         0.1980384359
N         -1.0002211873         0.1279279621         0.0690496047
H         -3.0156928071         0.8983217229         1.0892167664
H         -3.2722342983        -0.1031725558        -0.6124465891
H         -0.6477956661        -0.4432799748        -0.7034760795
H         -0.4094796111         0.5445800108         0.7919562696
           6
ANG Step:         58 Time:     1198.8829888132
C         -2.6907295375         0.3497818205         0.1977206768
N         -1.0029307796         0.1284522757         0.0691448786
H         -3.0130105530         0.8959245090         1.0900677118
H         -3.2697491532        -0.1029990068        -0.6124537099
H         -0.6507036015        -0.4446125276        -0.7010767933
H         -0.4125325493         0.5445912228         0.7914399385
           6
ANG Step:         59 Time:     1219.5533851720
C         -2.6875286380         0.3494776930         0.1973989864
N         -1.0056862975         0.1289930746         0.0692336907
H         -3.0101418035         0.8930655604         1.0904772177
H         -3.2669443131        -0.1025486171        -0.6120156161
H         -0.6535757822        -0.4459826132        -0.6984011841
H         -0.4154868592         0.5445186389         0.7908031102
           6
ANG Step:         60 Time:     1240.2237815309
C         -2.6843331820         0.3491820362         0.1970742497
N         -1.0084831705         0.1295507512         0.0693153105
H         -3.0071210626         0.8897746771         1.0905131173
H         -3.2638702591        -0.1018487526        -0.6111930718
H         -0.6563723500        -0.4474603647        -0.6955207197
H         -0.4182832931         0.5444049571         0.7901117126
           6
ANG Step:         61 Time:     1260.8941778897
C         -2.6811466155         0.3488960854         0.1967468816
N         -1.0113164022         0.1301260502         0.0693894708
H         -3.0039943539         0.8861020778         1.0902793281
H         -3.2605979663        -0.1009431163        -0.6100777142
H         -0.6590564645        -0.4491176972        -0.6925069237
H         -0.4208708172         0.5442906521         0.7894256734
           6
ANG Step:         62 Time:     1281.5645742486
C         -2.6779700078         0.3486207582         0.1964168859
N         -1.0141799762         0.1307198740         0.0694561991
H         -3.0008161050         0.8821122656         1.0899066803
H         -3.2572131230        -0.0998868026        -0.6087835376
H         -0.6615977950        -0.4510220211        -0.6894226855
H         -0.4232112326         0.5442104027         0.7887925759
           6
ANG Step:         63 Time:     1302.2349706074
C         -2.6748029626         0.3483567737         0.1960839441
N         -1.0170663883         0.1313330687         0.0695156120
H         -2.9976453697         0.8778768329         1.0895418580
H         -3.2538092405        -0.0987405006        -0.6074368583
H         -0.6639755316        -0.4532306764        -0.6863147179
H         -0.4252824724         0.5441905084         0.7882429555
           6
ANG Step:         64 Time:     1322.9053669663
C         -2.6716446113         0.3481047808         0.1957475283
N         -1.0199663677         0.1319662168         0.0695677032
H         -2.9945416450         0.8734667083         1.0893351368
H         -3.2504801406        -0.0975642440        -0.6061654500
H         -0.6661805441        -0.4557867389        -0.6832080075
H         -0.4270801826         0.5442475637         0.7877877164
           6
ANG Step:         65 Time:     1343.5757633251
C         -2.6684946057         0.3478654792         0.1954070369
N         -1.0228688192         0.1326194652         0.0696121506
H         -2.9915606032         0.8689444467         1.0894281188
H         -3.2473124375        -0.0964111993        -0.6050877913