           6
AU Step:          0 Time:        0.0000000000
C          0.0000000000         0.0000000000         0.0000000000
N          0.0000000000         0.0000000000         0.0000000000
H          0.0000000000         0.0000000000         0.0000000000
H          0.0000000000         0.0000000000         0.0000000000
H          0.0000000000         0.0000000000         0.0000000000
H          0.0000000000         0.0000000000         0.0000000000
           6
AU Step:          1 Time:       20.6703963588
C         -0.0002487454         0.0000323537         0.0000183087
N          0.0002058029        -0.0000267655        -0.0000151506
H          0.0000180602        -0.0000488802        -0.0000749372
H          0.0000406390         0.0000412511         0.0000705474
H          0.0000261100         0.0000108096         0.0000206848
H          0.0000193546        -0.0000167674        -0.0000239245
           6
AU Step:          2 Time:       41.3407927177
C         -0.0004793067         0.0000623422         0.0000352792
N          0.0003967902        -0.0000516036        -0.0000292102
H          0.0000282579        -0.0000874919        -0.0001346623
H          0.0000689465         0.0000748575         0.0001273708
H          0.0000557542         0.0000163051         0.0000334317
H          0.0000445693        -0.0000294451        -0.0000406148
           6
AU Step:          3 Time:       62.0111890765
C         -0.0006816922         0.0000886660         0.0000501762
N          0.0005649076        -0.0000734663        -0.0000415856
H          0.0000243347        -0.0001080720        -0.0001677141
H          0.0000753071         0.0000950775         0.0001601785
H          0.0000924017         0.0000123051         0.0000320903
H          0.0000809054        -0.0000349908        -0.0000445717
           6
AU Step:          4 Time:       82.6815854354
C         -0.0008515207         0.0001107551         0.0000626774
N          0.0007067155        -0.0000919060        -0.0000520234
H          0.0000020517        -0.0001054241        -0.0001664230
H          0.0000532393         0.0000980808         0.0001620920
H          0.0001386455        -0.0000038629         0.0000127845
H          0.0001320776        -0.0000315555        -0.0000323880
           6
AU Step:          5 Time:      103.3519817942
C         -0.0009868494         0.0001283565         0.0000726393
N          0.0008207464        -0.0001067313        -0.0000604155
H         -0.0000406279        -0.0000768088        -0.0001267109
H         -0.0000004870         0.0000818471         0.0001294260
H          0.0001955535        -0.0000331586        -0.0000258500
H          0.0001995377        -0.0000185079        -0.0000028873
           6
AU Step:          6 Time:      124.0223781531
C         -0.0010880279         0.0001415156         0.0000800875
N          0.0009073534        -0.0001179881        -0.0000667880
H         -0.0001032293        -0.0000224817        -0.0000488899
H         -0.0000853067         0.0000465192         0.0000624209
H          0.0002624582        -0.0000745871        -0.0000822969
H          0.0002821742         0.0000033884         0.0000425461
           6
AU Step:          7 Time:      144.6927745119
C         -0.0011573145         0.0001505262         0.0000851876
N          0.0009683621        -0.0001259142        -0.0000712755
H         -0.0001827378         0.0000539805         0.0000618779
H         -0.0001966837        -0.0000053360        -0.0000343143
H          0.0003369916        -0.0001252114        -0.0001521154
H          0.0003763435         0.0000319791         0.0000999183
           6
AU Step:          8 Time:      165.3631708708
C         -0.0010689239         0.0001390398         0.0000786667
N          0.0009255964        -0.0001203479        -0.0000681228
H         -0.0005375977         0.0002910801         0.0004003487
H         -0.0006450704        -0.0001383953        -0.0003135046
H          0.0004875712        -0.0002181066        -0.0002681860
H          0.0005606520         0.0000812407         0.0001912923
           6
AU Step:          9 Time:      186.0335672296
C         -0.0009648299         0.0001255038         0.0000709895
N          0.0008675345        -0.0001127912        -0.0000638442
H         -0.0008520547         0.0004988392         0.0006977353
H         -0.0010649998        -0.0002540375        -0.0005583955
H          0.0004697739        -0.0002954243        -0.0003630338
H          0.0007133183         0.0001223980         0.0002656533
           6
AU Step:         10 Time:      206.7039635885
C         -0.0009883774         0.0001285518         0.0000727292
N          0.0008843640        -0.0001148297        -0.0000648642
H         -0.0008805787         0.0005273220         0.0007419218
H         -0.0011270281        -0.0002732012        -0.0005954487
H          0.0003884699        -0.0003262060        -0.0004034088
H          0.0007744805         0.0001359953         0.0002935809
           6
AU Step:         11 Time:      227.3743599473
C         -0.0010021144         0.0001303375         0.0000737758
N          0.0008902886        -0.0001152155        -0.0000647202
H         -0.0008837927         0.0005204575         0.0007341051
H         -0.0011220400        -0.0002649372        -0.0005841708
H          0.0004470370        -0.0003429768        -0.0004221774
H          0.0008121425         0.0001355381         0.0002956356
           6
AU Step:         12 Time:      248.0447563062
C         -0.0010073969         0.0001310531         0.0000742512
N          0.0008871884        -0.0001142937        -0.0000637092
H         -0.0008648386         0.0004822541         0.0006784621
H         -0.0010801196        -0.0002326144        -0.0005299626
H          0.0004937852        -0.0003444603        -0.0004173316
H          0.0008263605         0.0001210905         0.0002724292
           6
AU Step:         13 Time:      268.7151526650
C         -0.0010051968         0.0001308384         0.0000742417
N          0.0008766223        -0.0001123823        -0.0000621269
H         -0.0008280647         0.0004187855         0.0005851661
H         -0.0010086748        -0.0001810629        -0.0004412959
H          0.0005283081        -0.0003302678        -0.0003892282
H          0.0008192531         0.0000942901         0.0002269971
           6
AU Step:         14 Time:      289.3855490239
C         -0.0009961980         0.0001297944         0.0000738088
N          0.0008598332        -0.0001097528        -0.0000602376
H         -0.0007783739         0.0003373243         0.0004650104
H         -0.0009161779        -0.0001160599        -0.0003283654
H          0.0005512148        -0.0003020462        -0.0003404914
H          0.0007945068         0.0000579225         0.0001643070
           6
AU Step:         15 Time:      310.0559453827
C         -0.0009808838         0.0001279922         0.0000729942
N          0.0008377849        -0.0001066217        -0.0000582557
H         -0.0007207429         0.0002456073         0.0003295547
H         -0.0008113402        -0.0000437528        -0.0002020231
H          0.0005639042        -0.0002627041        -0.0002755838
H          0.0007568114         0.0000155188         0.0000905946
           6
AU Step:         16 Time:      330.7263417416
C         -0.0009596086         0.0001254819         0.0000718251
N          0.0008112167        -0.0001031491        -0.0000563369
H         -0.0006598849         0.0001512742         0.0001902686
H         -0.0007025252         0.0000297793        -0.0000729919
H          0.0005682984        -0.0002160167        -0.0002002330
H          0.0007113081        -0.0000290389         0.0000126824
           6
AU Step:         17 Time:      351.3967381004
C         -0.0009326541         0.0001222967         0.0000703191
N          0.0007807013        -0.0000994436        -0.0000545780
H         -0.0006000296         0.0000614610         0.0000579136
H         -0.0005973515         0.0000988451         0.0000486989
H          0.0005665790        -0.0001662096        -0.0001208156
H          0.0006630961        -0.0000718781        -0.0000626486
           6
AU Step:         18 Time:      372.0671344593
C         -0.0009002773         0.0001184662         0.0000684882
N          0.0007467023        -0.0000955691        -0.0000530199
H         -0.0005447774        -0.0000175106        -0.0000579397
H         -0.0005024104         0.0001583896         0.0001541468
H          0.0005609515        -0.0001175607        -0.0000437618
H          0.0006168108        -0.0001094536        -0.0001292125
           6
AU Step:         19 Time:      392.7375308181
C         -0.0008627535         0.0001140227         0.0000663419
N          0.0007096271        -0.0000915524        -0.0000516530
H         -0.0004969879        -0.0000804051        -0.0001493319
H         -0.0004230319         0.0002042175         0.0002359663
H          0.0005534436        -0.0000740367         0.0000249876
H          0.0005762662        -0.0001388246        -0.0001818971
           6
AU Step:         20 Time:      413.4079271770
C         -0.0008204212         0.0001089991         0.0000638906
N          0.0006698741        -0.0000873918        -0.0000504246
H         -0.0004586820        -0.0001233399        -0.0002103226
H         -0.0003630565         0.0002332214         0.0002886835
H          0.0005457374        -0.0000389672         0.0000804652
H          0.0005441649        -0.0001578846        -0.0002170612
           6
AU Step:         21 Time:      434.0783235358
C         -0.0007737239         0.0001034358         0.0000611475
N          0.0006278718        -0.0000830660        -0.0000492475
H         -0.0004309479        -0.0001440548        -0.0002374002
H         -0.0003246100         0.0002436144         0.0003091398
H          0.0005390342        -0.0000147678         0.0001190866
H          0.0005218821        -0.0001655371        -0.0002328346
           6
AU Step:         22 Time:      454.7487198947
C         -0.0007232485         0.0000973932         0.0000581313
N          0.0005841070        -0.0000785442        -0.0000480118
H         -0.0004138665        -0.0001421504        -0.0002298704
H         -0.0003079120         0.0002351371         0.0002968503
H          0.0005339534        -0.0000027292         0.0001389660
H          0.0005093509        -0.0001617944        -0.0002292827
           6
AU Step:         23 Time:      475.4191162535
C         -0.0006697479         0.0000909529         0.0000548681
N          0.0005391389        -0.0000737969        -0.0000466003
H         -0.0004064859        -0.0001192279        -0.0001900886
H         -0.0003111834         0.0002091822         0.0002542214
H          0.0005304769        -0.0000028911         0.0001401000
H          0.0005050838        -0.0001477729        -0.0002083913
           6
AU Step:         24 Time:      496.0895126123
C         -0.0006141404         0.0000842155         0.0000513931
N          0.0004935955        -0.0000688077        -0.0000449070
H         -0.0004068812        -0.0000788511        -0.0001234101
H         -0.0003307303         0.0001687672         0.0001865001
H          0.0005279513        -0.0000140307         0.0001243774
H          0.0005063569        -0.0001255641        -0.0001738343
           6
AU Step:         25 Time:      516.7599089712
C         -0.0005574784         0.0000772954         0.0000477513
N          0.0004481510        -0.0000635830        -0.0000428556
H         -0.0004123257        -0.0000262672        -0.0000377767
H         -0.0003612647         0.0001182963         0.0001013597
H          0.0005251624        -0.0000337934         0.0000953764
H          0.0005095612        -0.0000979781        -0.0001305202
           6
AU Step:         26 Time:      537.4303053300
C         -0.0005008841         0.0000703190         0.0000439972
N          0.0004034868        -0.0000581593        -0.0000404152
H         -0.0004195790         0.0000321337         0.0000571030
H         -0.0003964683         0.0000631036         0.0000081042
H          0.0005204863        -0.0000589703         0.0000579426
H          0.0005106871        -0.0000681875        -0.0000839668
           6
AU Step:         27 Time:      558.1007016889
C         -0.0004454625         0.0000634185         0.0000401919
N          0.0003602424        -0.0000526036        -0.0000376079
H         -0.0004252623         0.0000895593         0.0001508746
H         -0.0004297364         0.0000088278        -0.0000834239
H          0.0005121077        -0.0000858996         0.0000175872
H          0.0005058699        -0.0000393238        -0.0000395960
           6
AU Step:         28 Time:      578.7710980477
C         -0.0003922063         0.0000567172         0.0000363993
N          0.0003189639        -0.0000470083        -0.0000345070
H         -0.0004262585         0.0001396306         0.0002337842
H         -0.0004549738        -0.0000392714        -0.0001640359
H          0.0004982759        -0.0001109316        -0.0000202076
H          0.0004919049        -0.0000140957        -0.0000020683
           6
AU Step:         29 Time:      599.4414944066
C         -0.0003419126         0.0000503197         0.0000326809
N          0.0002800623        -0.0000414801        -0.0000312257
H         -0.0004200660         0.0001771169         0.0002978093
H         -0.0004672929        -0.0000769210        -0.0002262594
H          0.0004775574        -0.0001308819        -0.0000506611
H          0.0004666437         0.0000055058         0.0000252279
           6
AU Step:         30 Time:      620.1118907654
C         -0.0002951270         0.0000443043         0.0000290903
N          0.0002437859        -0.0000361258        -0.0000278989
H         -0.0004050437         0.0001984549         0.0003374561
H         -0.0004634868        -0.0001012552        -0.0002650753
H          0.0004490433        -0.0001433997        -0.0000702358
H          0.0004292158         0.0000183765         0.0000404661
           6
AU Step:         31 Time:      640.7822871243
C         -0.0002521232         0.0000387188         0.0000256682
N          0.0002102126        -0.0000310391        -0.0000246630
H         -0.0003805160         0.0002019825         0.0003501299
H         -0.0004422219        -0.0001109921        -0.0002782325
H          0.0004124782        -0.0001471943        -0.0000769666
H          0.0003800610         0.0000243317         0.0000434328
           6
AU Step:         32 Time:      661.4526834831
C         -0.0002129160         0.0000335806         0.0000224403
N          0.0001792606        -0.0000262895        -0.0000216382
H         -0.0003467421         0.0001878936         0.0003360793
H         -0.0004039631        -0.0001063815        -0.0002661602
H          0.0003682967        -0.0001421018        -0.0000705528
H          0.0003207980         0.0000240205         0.0000353726
           6
AU Step:         33 Time:      682.1230798420
C         -0.0001772992         0.0000288790         0.0000194165
N          0.0001507135        -0.0000219162        -0.0000189153
H         -0.0003047847         0.0001579823         0.0002980098
H         -0.0003507050        -0.0000889790        -0.0002315797
H          0.0003175745        -0.0001290072        -0.0000522343
H          0.0002539751         0.0000187572         0.0000186874
           6
AU Step:         34 Time:      702.7934762008
C         -0.0001448976         0.0000245810         0.0000165922
N          0.0001242549        -0.0000179262        -0.0000165496
H         -0.0002563204         0.0001152665         0.0002405174
H         -0.0002855951        -0.0000613274        -0.0001789495
H          0.0002619102        -0.0001096546        -0.0000245062
H          0.0001827574         0.0000103062        -0.0000034423
           6
AU Step:         35 Time:      723.4638725597
C         -0.0001152223         0.0000206366         0.0000139505
N          0.0000995072        -0.0000142972        -0.0000145589
H         -0.0002034323         0.0000635727         0.0001694549
H         -0.0002125287        -0.0000266104        -0.0001138611
H          0.0002032671        -0.0000863933         0.0000092611
H          0.0001105926         0.0000006520        -0.0000274614
           6
AU Step:         36 Time:      744.1342689185
C         -0.0000877235         0.0000169861         0.0000114656
N          0.0000760720        -0.0000109814        -0.0000129256
H         -0.0001484122         0.0000071394         0.0000913290
H         -0.0001357681         0.0000116738        -0.0000424695
H          0.0001437933        -0.0000618932         0.0000452418
H          0.0000408885        -0.0000082232        -0.0000498302
           6
AU Step:         37 Time:      764.8046652774
C         -0.0000618367         0.0000135655         0.0000091060
N          0.0000535661        -0.0000079126        -0.0000116021
H         -0.0000935861        -0.0000497326         0.0000127645
H         -0.0000596113         0.0000499968         0.0000290056
H          0.0000856423        -0.0000388627         0.0000795711
H         -0.0000232775        -0.0000145397        -0.0000673742
           6
AU Step:         38 Time:      785.4750616362
C         -0.0000370221         0.0000103115         0.0000068372
N          0.0000316548        -0.0000050128        -0.0000105170
H         -0.0000411649        -0.0001029779        -0.0000599567
H          0.0000118921         0.0000850428         0.0000947063
H          0.0000308032        -0.0000197857         0.0001087299
H         -0.0000794043        -0.0000168918        -0.0000775808
           6
AU Step:         39 Time:      806.1454579951
C         -0.0000127985         0.0000071661         0.0000046247
N          0.0000100790        -0.0000021997        -0.0000095831
H          0.0000068834        -0.0001490208        -0.0001212811
H          0.0000751812         0.0001139141         0.0001494985
H         -0.0000190471        -0.0000066908         0.0001298781
H         -0.0001257585        -0.0000143813        -0.0000788316
           6
AU Step:         40 Time:      826.8158543539
C          0.0000112272         0.0000040804         0.0000024363
N         -0.0000113258         0.0000006060        -0.0000087057
H          0.0000489453        -0.0001849914        -0.0001667235
H          0.0001273929         0.0001343077         0.0001892849
H         -0.0000626657        -0.0000009654         0.0001411210
H         -0.0001614965        -0.0000067045        -0.0000705500
           6
AU Step:         41 Time:      847.4862507128
C          0.0000353353         0.0000010181         0.0000002444
N         -0.0000326187         0.0000034727        -0.0000077928
H          0.0000838585        -0.0002089120        -0.0001931571
H          0.0001665420         0.0001446655         0.0002112733
H         -0.0000993287        -0.0000032252         0.0001416924
H         -0.0001867048         0.0000058180        -0.0000532523
           6
AU Step:         42 Time:      868.1566470716
C          0.0000596734        -0.0000020425        -0.0000019724
N         -0.0000537532         0.0000064514        -0.0000067652
H          0.0001109903        -0.0002198424        -0.0001990463
H          0.0001916656         0.0001442925         0.0002141872
H         -0.0001288707        -0.0000132560         0.0001320309
H         -0.0002023479         0.0000222747        -0.0000284853
           6
AU Step:         43 Time:      888.8270434305
C          0.0000842444        -0.0000051059        -0.0000042271
N         -0.0000745886         0.0000095698        -0.0000055661
H          0.0001302883        -0.0002179665        -0.0001845878
H          0.0002029098         0.0001334253         0.0001983920
H         -0.0001516705        -0.0000300388         0.0001137327
H         -0.0002101208         0.0000412662         0.0000013530
           6
AU Step:         44 Time:      909.4974397893
C          0.0001089049        -0.0000081595        -0.0000065232
N         -0.0000949115         0.0000128290        -0.0000041688
H          0.0001422893        -0.0002045969        -0.0001517271
H          0.0002015360         0.0001132303         0.0001658964
H         -0.0001685794        -0.0000518661         0.0000893726
H         -0.0002122198         0.0000610672         0.0000332951
           6
AU Step:         45 Time:      930.1678361482
C          0.0001333782        -0.0000111744        -0.0000088534
N         -0.0001144658         0.0000162032        -0.0000025805
H          0.0001480759        -0.0001820751        -0.0001040189
H          0.0001898214         0.0000857146         0.0001201976
H         -0.0001807971        -0.0000765443         0.0000622047
H         -0.0002110579         0.0000798312         0.0000641590
           6
AU Step:         46 Time:      950.8382325070
C          0.0001572814        -0.0000141075        -0.0000111999
N         -0.0001329867         0.0000196429        -0.0000008417
H          0.0001491715        -0.0001535541        -0.0000462959
H          0.0001708451         0.0000535379         0.0000659549
H         -0.0001897076        -0.0001016580         0.0000357743
H         -0.0002089651         0.0000958087         0.0000909235
           6
AU Step:         47 Time:      971.5086288658
C          0.0001801670        -0.0000169063        -0.0000135354
N         -0.0001502338         0.0000230823         0.0000009800
H          0.0001473819        -0.0001226797         0.0000158154
H          0.0001481710         0.0000197425         0.0000085116
H         -0.0001967005        -0.0001248629         0.0000134947
H         -0.0002079190         0.0001075478         0.0001110722
           6
AU Step:         48 Time:      992.1790252247
C          0.0002015723        -0.0000195142        -0.0000158251
N         -0.0001660195         0.0000264479         0.0000027993
H          0.0001445996        -0.0000932038         0.0000764901
H          0.0001254675        -0.0000125704        -0.0000466750
H         -0.0002030025        -0.0001441630        -0.0000017478
H         -0.0002093406         0.0001140481         0.0001228562
           6
AU Step:         49 Time:     1012.8494215835
C          0.0002210708        -0.0000218764        -0.0000180308
N         -0.0001802278         0.0000296684         0.0000045253
H          0.0001425974        -0.0000685875         0.0001303306
H          0.0001061150        -0.0000405697        -0.0000946160
H         -0.0002095432        -0.0001581322        -0.0000079055
H         -0.0002139798         0.0001148501         0.0001254454
           6
AU Step:         50 Time:     1033.5198179424
C          0.0002383178        -0.0000239455        -0.0000201145
N         -0.0001928224         0.0000326836         0.0000060726
H          0.0001428453        -0.0000516531         0.0001739060
H          0.0000928648        -0.0000619770        -0.0001312957
H         -0.0002168742        -0.0001658891        -0.0000039557
H         -0.0002218953         0.0001100543         0.0001189585
           6
AU Step:         51 Time:     1054.1902143012
C          0.0002530816        -0.0000256838        -0.0000220373
N         -0.0002038450         0.0000354515         0.0000073718
H          0.0001463924        -0.0000443740         0.0002050906
H          0.0000875945        -0.0000752638        -0.0001540257
H         -0.0002251406        -0.0001673093         0.0000100444
H         -0.0002325214         0.0001002738         0.0001043811
           6
AU Step:         52 Time:     1074.8606106601
C          0.0002652587        -0.0000270622        -0.0000237594
N         -0.0002134044         0.0000379525         0.0000083757
H          0.0001538092        -0.0000477820         0.0002213321
H          0.0000911868        -0.0000797417        -0.0001616114
H         -0.0002341070        -0.0001632986         0.0000330332
H         -0.0002447950         0.0000865377         0.0000833987
           6
AU Step:         53 Time:     1095.5310070189
C          0.0002748764        -0.0000280660        -0.0000252481
N         -0.0002216595         0.0000401894         0.0000090616
H          0.0001651552        -0.0000619216         0.0002216516
H          0.0001035350        -0.0000755511        -0.0001543338
H         -0.0002432316        -0.0001553526         0.0000631366
H         -0.0002573238         0.0000701633         0.0000581765
           6
AU Step:         54 Time:     1116.2014033778
C          0.0002820817        -0.0000286980        -0.0000264860
N         -0.0002287986         0.0000421855         0.0000094312
H          0.0001800047        -0.0000859121         0.0002066710
H          0.0001236507        -0.0000635638        -0.0001337829
H         -0.0002517683        -0.0001453589         0.0000979259
H         -0.0002685703         0.0000526119         0.0000311115
           6
AU Step:         55 Time:     1136.8717997366
C          0.0002871202        -0.0000289784        -0.0000274746
N         -0.0002350178         0.0000439805         0.0000095070
H          0.0001975190        -0.0001180995         0.0001782475
H          0.0001498391        -0.0000452303        -0.0001025901
H         -0.0002588791        -0.0001354213         0.0001347067
H         -0.0002770349         0.0000353437         0.0000045841
           6
AU Step:         56 Time:     1157.5421960955
C          0.0002903091        -0.0000289436        -0.0000282363
N         -0.0002405001         0.0000456249         0.0000093284
H          0.0002165439        -0.0001562532         0.0001407522
H          0.0001799125        -0.0000223974        -0.0000641073
H         -0.0002637492        -0.0001273929         0.0001708114
H         -0.0002814218         0.0000196858        -0.0000192680
           6
AU Step:         57 Time:     1178.2125924543
C          0.0002920062        -0.0000286397        -0.0000288073
N         -0.0002453972         0.0000471750         0.0000089456
H          0.0002357452        -0.0001978360         0.0000991125
H          0.0002114098         0.0000028801        -0.0000220740
H         -0.0002656880        -0.0001229450         0.0002038595
H         -0.0002807783         0.0000067191        -0.0000387419
           6
AU Step:         58 Time:     1198.8829888132
C          0.0002925802        -0.0000281152        -0.0000292298
N         -0.0002498153         0.0000486873         0.0000084147
H          0.0002537415        -0.0002402641         0.0000576164
H          0.0002418101         0.0000285208         0.0000197002
H         -0.0002642145        -0.0001235401         0.0002319782
H         -0.0002745969        -0.0000028054        -0.0000527120
           6
AU Step:         59 Time:     1219.5533851720
C          0.0002923834        -0.0000274167        -0.0000295488
N         -0.0002538050         0.0000502123         0.0000077906
H          0.0002692141        -0.0002811145         0.0000203599
H          0.0002687297         0.0000525792         0.0000576249
H         -0.0002591238        -0.0001301773         0.0002539733
H         -0.0002628719        -0.0000085144        -0.0000607144
           6
AU Step:         60 Time:     1240.2237815309
C          0.0002917282        -0.0000265858        -0.0000298083
N         -0.0002573573         0.0000517894         0.0000071209
H          0.0002810056        -0.0003183073        -0.0000090457
H          0.0002900974         0.0000733889         0.0000885833
H         -0.0002505271        -0.0001433076         0.0002694321
H         -0.0002461057        -0.0000104215        -0.0000629639
           6
AU Step:         61 Time:     1260.8941778897
C          0.0002908666        -0.0000256565        -0.0000300487
N         -0.0002604063         0.0000534417         0.0000064401
H          0.0002882055        -0.0003502560        -0.0000277208
H          0.0003043039         0.0000896826         0.0001101421
H         -0.0002388600        -0.0001628066         0.0002787468
H         -0.0002252607        -0.0000088933        -0.0000602990
           6
AU Step:         62 Time:     1281.5645742486
C          0.0002899743        -0.0000246524        -0.0000303035
N         -0.0002628372         0.0000551739         0.0000057660
H          0.0002902180        -0.0003759836        -0.0000337104
H          0.0003103190         0.0001006836         0.0001207160
H         -0.0002248551        -0.0001880081         0.0002830515
H         -0.0002016609        -0.0000045777        -0.0000540631
           6
AU Step:         63 Time:     1302.2349706074
C          0.0002891398        -0.0000235858        -0.0000305970
N         -0.0002645013         0.0000569715         0.0000050970
H          0.0002868114        -0.0003951965        -0.0000261258
H          0.0003077709         0.0001061663         0.0001196752
H         -0.0002094817        -0.0002177997         0.0002840787
H         -0.0001768533         0.0000016987        -0.0000459331
           6
AU Step:         64 Time:     1322.9053669663
C          0.0002883609        -0.0000224575        -0.0000309421
N         -0.0002652345         0.0000588024         0.0000044129
H          0.0002781403        -0.0004083077        -0.0000051991
H          0.0002969749         0.0001064745         0.0001073780
H         -0.0001938555        -0.0002507689         0.0002839501
H         -0.0001524442         0.0000090511        -0.0000377154
           6
AU Step:         65 Time:     1343.5757633251
C          0.0002875488        -0.0000212579        -0.0000313393
N         -0.0002648780         0.0000606218         0.0000036785
H          0.0002647366        -0.0004164017         0.0000277450
H          0.0002789050         0.0001024948         0.0000851223
H         -0.0001791299        -0.0002853872         0.0002849254