           6
AU Step:          0 Time:        0.0000000000
C         -4.6519303176         0.5998128696         0.3398868982
N         -2.2608770381         0.2887926719         0.1639860874
H         -5.4359572810         1.6738523232         1.9355499129
H         -5.9049774807        -0.2096157926        -1.1054962128
H         -1.4584057807        -0.7055453144        -1.3031360550
H         -1.0294464523         1.0187814049         1.4814502350
           6
AU Step:          1 Time:        8.2681585435
C         -4.6523507400         0.5998675529         0.3399178428
N         -2.2605292929         0.2887474460         0.1639604873
H         -5.4359239247         1.6737668270         1.9354190707
H         -5.9049047506        -0.2095440836        -1.1053732942
H         -1.4583640152        -0.7055250782        -1.3030983014
H         -1.0294169008         1.0187518202         1.4814074144
           6
AU Step:          2 Time:       16.5363170871
C         -4.6536094592         0.6000312712         0.3400104893
N         -2.2594881044         0.2886120347         0.1638838378
H         -5.4358258265         1.6735126504         1.9350299432
H         -5.9046895247        -0.2093306281        -1.1050075755
H         -1.4582374936        -0.7054657194        -1.3029870125
H         -1.0293264521         1.0186640211         1.4812806980
           6
AU Step:          3 Time:       24.8044756306
C         -4.6556989573         0.6003030469         0.3401642845
N         -2.2577595093         0.2883872236         0.1637565834
H         -5.4356688696         1.6730966917         1.9343926712
H         -5.9043406474        -0.2089804112        -1.1044081145
H         -1.4580225505        -0.7053712601        -1.3028080609
H         -1.0291697372         1.0185208538         1.4810752912
           6
AU Step:          4 Time:       33.0726341742
C         -4.6586069545         0.6006812827         0.3403783249
N         -2.2553533620         0.2880742949         0.1635794501
H         -5.4354627758         1.6725303577         1.9335240241
H         -5.9038727384        -0.2085016853        -1.1035898890
H         -1.4577131159        -0.7052483430        -1.3025711437
H         -1.0289378782         1.0183270096         1.4807997771
           6
AU Step:          5 Time:       41.3407927177
C         -4.6623166077         0.6011637879         0.3406513713
N         -2.2522831683         0.2876750061         0.1633534327
H         -5.4352209955         1.6718294598         1.9324472511
H         -5.9033060393        -0.2079058923        -1.1025736698
H         -1.4573007919        -0.7051061358        -1.3022896417
H         -1.0286186031         1.0180889606         1.4804660007
           6
AU Step:          6 Time:       49.6089512612
C         -4.6668067847         0.6017478140         0.3409818689
N         -2.2485658580         0.2871915606         0.1630797784
H         -5.4349605470         1.6710140638         1.9311918632
H         -5.9026661889        -0.2072075656        -1.1013858307
H         -1.4567749648        -0.7049562030        -1.3019804301
H         -1.0281964180         1.0178148640         1.4800888930
           6
AU Step:          7 Time:       57.8771098048
C         -4.6720523971         0.6024300978         0.3413679718
N         -2.2442215095         0.2866265710         0.1627599661
H         -5.4347018043         1.6701082865         1.9297933419
H         -5.9019839275        -0.2064241883        -1.1000580912
H         -1.4561229617        -0.7048123311        -1.3016636232
H         -1.0276528242         1.0175144424         1.4796862542
           6
AU Step:          8 Time:       66.1452683483
C         -4.6780247919         0.6032069126         0.3418075718
N         -2.2392730255         0.2859830178         0.1623956829
H         -5.4344682294         1.6691400324         1.9282927572
H         -5.9012947194        -0.2055760166        -1.0986271857
H         -1.4553302378        -0.7046903150        -1.3013622603
H         -1.0269666100         1.0171988251         1.4792784627
           6
AU Step:          9 Time:       74.4134268919
C         -4.6846921862         0.6040741245         0.3422983303
N         -2.2337457760         0.2852642027         0.1619887977
H         -5.4342860455         1.6681406651         1.9267362926
H         -5.9006382849        -0.2046858594        -1.0971344432
H         -1.4543806085        -0.7046076934        -1.3011019178
H         -1.0261141922         1.0168803641         1.4788881384
           6
AU Step:         10 Time:       82.6815854354
C         -4.6920201335         0.6050272530         0.3428377125
N         -2.2276672164         0.2844736990         0.1615413330
H         -5.4341838514         1.6671446066         1.9251746634
H         -5.9000580467        -0.2037787895        -1.0956252734
H         -1.4532565334        -0.7045834399        -1.3009102563
H         -1.0250700290         1.0165724109         1.4785397341
           6
AU Step:         11 Time:       90.9497439789
C         -4.6999720148         0.6060615349         0.3434230239
N         -2.2210664888         0.2836152990         0.1610554353
H         -5.4341921728         1.6661888559         1.9236624152
H         -5.8996004803        -0.2028817958        -1.0941485505
H         -1.4519394323        -0.7046376040        -1.3008164925
H         -1.0238070851         1.0162890663         1.4782590769
           6
AU Step:         12 Time:       99.2179025225
C         -4.7085095370         0.6071719890         0.3440514463
N         -2.2139740206         0.2826929632         0.1605333459
H         -5.4343429625         1.6653124335         1.9222571151
H         -5.8993143737        -0.2020234029        -1.0927558886
H         -1.4504100404        -0.7047909160        -1.3008508184
H         -1.0222973626         1.0160448929         1.4780728392
           6
AU Step:         13 Time:      107.4860610660
C         -4.7175932335         0.6083534818         0.3447200754
N         -2.2064211249         0.2817107667         0.1599773714
H         -5.4346690430         1.6645557365         1.9210184081
H         -5.8992500004        -0.2012332211        -1.0915008093
H         -1.4486487973        -0.7050643436        -1.3010437471
H         -1.0205124735         1.0158546027         1.4780079672
           6
AU Step:         14 Time:      115.7542196095
C         -4.7271829563         0.6096007915         0.3454259569
N         -2.1984396135         0.2806728501         0.1593898551
H         -5.4352035100         1.6639598217         1.9200069688
H         -5.8994582149        -0.2005414196        -1.0904378015
H         -1.4466362570        -0.7054786242        -1.3014254192
H         -1.0184242544         1.0157327202         1.4780910561
           6
AU Step:         15 Time:      124.0223781531
C         -4.7372383456         0.6109086683         0.3461661206
N         -2.1900614316         0.2795833708         0.1587731499
H         -5.4359791090         1.6635656194         1.9192833538
H         -5.8999894881        -0.1999781302        -1.0896212865
H         -1.4443535178        -0.7060537725        -1.3020248655
H         -1.0160054000         1.0156932306         1.4783476971
           6
AU Step:         16 Time:      132.2905366966
C         -4.7477192760         0.6122718940         0.3469376140
N         -2.1813183180         0.2784464591         0.1581295934
H         -5.4370275901         1.6634130784         1.9189067606
H         -5.9008928990        -0.1995728226        -1.0891045094
H         -1.4417826404        -0.7068085881        -1.3028692542
H         -1.0132301044         1.0157492253         1.4788018032
           6
AU Step:         17 Time:      140.5586952402
C         -4.7585862694         0.6136853340         0.3477375313
N         -2.1722414945         0.2772661784         0.1574614856
H         -5.4383790718         1.6635402637         1.9189337523
H         -5.9022151049        -0.1993535849        -1.0889383709
H         -1.4389070761        -0.7077601792        -1.3039831207
H         -1.0100746969         1.0159125620         1.4794749138
           6
AU Step:         18 Time:      148.8268537837
C         -4.7698008664         0.6151439868         0.3485630423
N         -2.1628613932         0.2760464884         0.1567710676
H         -5.4400614287         1.6639823592         1.9194169899
H         -5.9039993279        -0.1993463862        -1.0891702940
H         -1.4357120665        -0.7089235818        -1.3053875702
H         -1.0065182332         1.0161936174         1.4803854777
           6
AU Step:         19 Time:      157.0950123272
C         -4.7813259554         0.6166430263         0.3494114157
N         -2.1532074195         0.2747912155         0.1560605052
H         -5.4420997761         1.6647700699         1.9204043704
H         -5.9062843263        -0.1995736890        -1.0898434718
H         -1.4321850619        -0.7103120812        -1.3070991160
H         -1.0025429864         1.0166017227         1.4815477533
           6
AU Step:         20 Time:      165.3631708708
C         -4.7922494957         0.6180638930         0.3502154177
N         -2.1438587167         0.2735756528         0.1553724400
H         -5.4461432295         1.6668579642         1.9231921730
H         -5.9110770061        -0.2005150791        -1.0919839270
H         -1.4279402959        -0.7121102151        -1.3093556209
H         -0.9976987822         1.0172129023         1.4831379567
           6
AU Step:         21 Time:      173.6313294143
C         -4.8030397099         0.6194674897         0.3510095097
N         -2.1344704576         0.2723549677         0.1546814946
H         -5.4549695275         1.6717723635         1.9298329397
H         -5.9217641982        -0.2029033042        -1.0971955701
H         -1.4207428760        -0.7154198607        -1.3135559727
H         -0.9890742183         1.0184173693         1.4861551668
           6
AU Step:         22 Time:      181.8994879579
C         -4.8140571962         0.6209006419         0.3518203414
N         -2.1248794666         0.2711080069         0.1539757208
H         -5.4641371955         1.6770151566         1.9369475209
H         -5.9329295255        -0.2055133830        -1.1028206038
H         -1.4132276744        -0.7189298292        -1.3180315352
H         -0.9800570150         1.0197284251         1.4893937303
           6
AU Step:         23 Time:      190.1676465014
C         -4.8252839699         0.6223610102         0.3526465915
N         -2.1151032830         0.2698370998         0.1532564825
H         -5.4736073919         1.6825338245         1.9444585660
H         -5.9445106135        -0.2083057270        -1.1087888070
H         -1.4054225038        -0.7226070715        -1.3227330525
H         -0.9706907516         1.0211214448         1.4928083222
           6
AU Step:         24 Time:      198.4358050449
C         -4.8367033556         0.6238464265         0.3534870349
N         -2.1051583181         0.2685444245         0.1525250528
H         -5.4833400498         1.6882732070         1.9522844430
H         -5.9564430412        -0.2112385929        -1.1150259677
H         -1.3973566056        -0.7264162452        -1.3276081093
H         -0.9610213179         1.0225700698         1.4963508496
           6
AU Step:         25 Time:      206.7039635885
C         -4.8482998805         0.6253548765         0.3543405360
N         -2.0950599123         0.2672320140         0.1517826172
H         -5.4932945226         1.6941764286         1.9603407551
H         -5.9686610208        -0.2142687897        -1.1214552774
H         -1.3890601877        -0.7303204242        -1.3326020497
H         -0.9510961431         1.0240467722         1.4999713032
           6
AU Step:         26 Time:      214.9721221320
C         -4.8600591603         0.6268844914         0.3552060406
N         -2.0848224026         0.2659017634         0.1510302762
H         -5.5034301912         1.7001858298         1.9685417890
H         -5.9810984268        -0.2173524007        -1.1279986642
H         -1.3805639649        -0.7342817787        -1.3376589323
H         -0.9409634260         1.0255233937         1.5036186500
           6
AU Step:         27 Time:      223.2402806756
C         -4.8719677837         0.6284335328         0.3560825671
N         -2.0744591987         0.2645554405         0.1502690515
H         -5.5137070167         1.7062438561         1.9768018804
H         -5.9936897487        -0.2204454785        -1.1345780418
H         -1.3718987132        -0.7382622340        -1.3427224862
H         -0.9306714039         1.0269716490         1.5072416996
           6
AU Step:         28 Time:      231.5084392191
C         -4.8840131971         0.6300003683         0.3569691989
N         -2.0639828639         0.2631946947         0.1494998893
H         -5.5240860370         1.7122938822         1.9850366591
H         -6.0063709581        -0.2235046956        -1.1411164693
H         -1.3630948550        -0.7422240895        -1.3477370192
H         -0.9202676484         1.0283636168         1.5107899574
           6
AU Step:         29 Time:      239.7765977626
C         -4.8961835958         0.6315834678         0.3578650764
N         -2.0534051976         0.2618210683         0.1487236682
H         -5.5345297958         1.7182809579         1.9931641843
H         -6.0190802724        -0.2264879342        -1.1475391928
H         -1.3541820679        -0.7461306143        -1.3526482985
H         -0.9097984206         1.0296721914         1.5142144153
           6
AU Step:         30 Time:      248.0447563062
C         -4.9084678206         0.6331813897         0.3587693890
N         -2.0427373169         0.2604360073         0.1479412037
H         -5.5450027067         1.7241524625         2.0011059409
H         -6.0317588131        -0.2293548105        -1.1537745667
H         -1.3451889377        -0.7499465837        -1.3574043501
H         -0.8993080810         1.0308715037         1.5174682913
           6
AU Step:         31 Time:      256.3129148497
C         -4.9208552630         0.6347927608         0.3596813684
N         -2.0319897371         0.2590408714         0.1471532555
H         -5.5554713551         1.7298586751         2.0087877005
H         -6.0443511602        -0.2320671299        -1.1597548515
H         -1.3361426496        -0.7536387747        -1.3619561928
H         -0.8888385674         1.0319373011         1.5205076932
           6
AU Step:         32 Time:      264.5810733933
C         -4.9333357787         0.6364162697         0.3606002821
N         -2.0211724479         0.2576369453         0.1463605332
H         -5.5659047340         1.7353532526         2.0161402546
H         -6.0568058052        -0.2345892771        -1.1654168939
H         -1.3270687201        -0.7571764036        -1.3662584948
H         -0.8784289390         1.0328472855         1.5232922125
           6
AU Step:         33 Time:      272.8492319368
C         -4.9458996101         0.6380506569         0.3615254277
N         -2.0102949852         0.2562254477         0.1455637020
H         -5.5762744261         1.7405936273         2.0231000167
H         -6.0690755120        -0.2368885404        -1.1707026894
H         -1.3179907724        -0.7605315096        -1.3702701457
H         -0.8681149823         1.0335814110         1.5257854445
           6
AU Step:         34 Time:      281.1173904803
C         -4.9585373169         0.6396947077         0.3624561270
N         -1.9993664986         0.2548075411         0.1447633888
H         -5.5865547351         1.7455413276         2.0296095222
H         -6.0811175923        -0.2389353792        -1.1755598432
H         -1.3089303485        -0.7636792827        -1.3739547497
H         -0.8579288856         1.0341221396         1.5279554343
           6
AU Step:         35 Time:      289.3855490239
C         -4.9712397145         0.6413472419         0.3633917216
N         -1.9883958127         0.2533843398         0.1439601873
H         -5.5967227729         1.7501622337         2.0356178167
H         -6.0928941077        -0.2407036372        -1.1799419362
H         -1.2999067628        -0.7665983407        -1.3772810411
H         -0.8478989753         1.0344546545         1.5297750470
           6
AU Step:         36 Time:      297.6537075674
C         -4.9839978194         0.6430071057         0.3643315683
N         -1.9773914837         0.2519569184         0.1431546636
H         -5.6067585079         1.7544267721         2.0410807600
H         -6.1043720086        -0.2421707109        -1.1838088099
H         -1.2909369863        -0.7692709599        -1.3802232313
H         -0.8380495073         1.0345670360         1.5312222745
           6
AU Step:         37 Time:      305.9218661109
C         -4.9968028023         0.6446731662         0.3652750351
N         -1.9663618492         0.2505263187         0.1423473599
H         -5.6166447848         1.7583100597         2.0459612515
H         -6.1155232164        -0.2433176772        -1.1871267805
H         -1.2820355712        -0.7716832454        -1.3827612671
H         -0.8284005147         1.0344504014         1.5322804734
           6
AU Step:         38 Time:      314.1900246545
C         -5.0096459446         0.6463443030         0.3662214985
N         -1.9553150732         0.2490935562         0.1415387998
H         -5.6263673147         1.7617920043         2.0502293955
H         -6.1263246693        -0.2441293933        -1.1898688032
H         -1.2732145976        -0.7738252693        -1.3848810400
H         -0.8189677065         1.0340990071         1.5329385404
           6
AU Step:         39 Time:      322.4581831980
C         -5.0225186025         0.6480194052         0.3671703401
N         -1.9442591856         0.2476596256         0.1407294911
H         -5.6359146481         1.7648573729         2.0538626102
H         -6.1367583221        -0.2445945618        -1.1920145737
H         -1.2644836512        -0.7756911590        -1.3865745214
H         -0.8097624061         1.0335103220         1.5331910362
           6
AU Step:         40 Time:      330.7263417416
C         -5.0354121737         0.6496973689         0.3681209444
N         -1.9332021153         0.2462255064         0.1399199298
H         -5.6452781317         1.7674958289         2.0568456951
H         -6.1468111253        -0.2447057777        -1.1935506018
H         -1.2558498270        -0.7772791468        -1.3878398384
H         -0.8007915449         1.0326850625         1.5330382402
           6
AU Step:         41 Time:      338.9945002851
C         -5.0483180692         0.6513770918         0.3690726962
N         -1.9221517176         0.2447921666         0.1391106029
H         -5.6544518518         1.7697019461         2.0591708604
H         -6.1564749775        -0.2444595553        -1.1944702469
H         -1.2473177586        -0.7785915738        -1.3886812842
H         -0.7920576902         1.0316271994         1.5324861587
           6
AU Step:         42 Time:      347.2626588286
C         -5.0612276891         0.6530574703         0.3700249790
N         -1.9111157963         0.2433605663         0.1383019908
H         -5.6634325657         1.7714751992         2.0608377234
H         -6.1657466572        -0.2438563352        -1.1947737214
H         -1.2388896676        -0.7796348600        -1.3891092740
H         -0.7835591182         1.0303439325         1.5315464731
           6
AU Step:         43 Time:      355.5308173722
C         -5.0741324016         0.6547373970         0.3709771731
N         -1.9001021194         0.2419316608         0.1374945697
H         -5.6722196278         1.7728199392         2.0618532773
H         -6.1746277395        -0.2429004811        -1.1944680725
H         -1.2305654367        -0.7804194324        -1.3891402390
H         -0.7752899262         1.0288456315         1.5302364325
           6
AU Step:         44 Time:      363.7989759157
C         -5.0870235257         0.6564157577         0.3719286548
N         -1.8891184291         0.2405064023         0.1366888128
H         -5.6808149052         1.7737453458         2.0622318317
H         -6.1831244941        -0.2416002555        -1.1935671323
H         -1.2223427090        -0.7809596048        -1.3887964484
H         -0.7672401894         1.0271457440         1.5285786871
           6
AU Step:         45 Time:      372.0671344593
C         -5.0998923185         0.6580914310         0.3728787947
N         -1.8781724446         0.2390857411         0.1358851927
H         -5.6892226852         1.7742653595         2.0619949171
H         -6.1912477662        -0.2399677800        -1.1920914383
H         -1.2142170059        -0.7812734215        -1.3881057758
H         -0.7593961663         1.0252606623         1.5266010506
           6
AU Step:         46 Time:      380.3352930028
C         -5.1127299649         0.6597632857         0.3738269573
N         -1.8672718591         0.2376706267         0.1350841817
H         -5.6974495768         1.7743985962         2.0611711655
H         -6.1990128429        -0.2380189795        -1.1900681289
H         -1.2061818747        -0.7813824465        -1.3871013853
H         -0.7517405476         1.0232095561         1.5243362017
           6
AU Step:         47 Time:      388.6034515463
C         -5.1255275725         0.6614301804         0.3747725003
N         -1.8564243305         0.2362620065         0.1342862529
H         -5.7055043995         1.7741682284         2.0597961352
H         -6.2064392905        -0.2357734991        -1.1875307898
H         -1.1982290567        -0.7813115097        -1.3858213475
H         -0.7442527514         1.0210141645         1.5218213186
           6
AU Step:         48 Time:      396.8716100899
C         -5.1382761721         0.6630909637         0.3757147747
N         -1.8456374634         0.2348608247         0.1334918791
H         -5.7133980611         1.7736018380         2.0579121006
H         -6.2135507685        -0.2332545971        -1.1845192610
H         -1.1903486902        -0.7810883883        -1.3843081643
H         -0.7369092746         1.0186985443         1.5190976323
           6
AU Step:         49 Time:      405.1397686334
C         -5.1509667220         0.6647444751         0.3766531250
N         -1.8349187858         0.2334680210         0.1327015340
H         -5.7211434194         1.7727312267         2.0555677677
H         -6.2203748102        -0.2304890038        -1.1810793843
H         -1.1825295306        -0.7807434494        -1.3826082290
H         -0.7296840997         1.0162887688         1.5162098994
           6
AU Step:         50 Time:      413.4079271770
C         -5.1635901204         0.6663895465         0.3775868898
N         -1.8242757173         0.2320845263         0.1319156904
H         -5.7287551274         1.7715921841         2.0528179335
H         -6.2269425634        -0.2275067409        -1.1772626839
H         -1.1747592066        -0.7803092214        -1.3807711835
H         -0.7225491511         1.0138125858         1.5132058005
           6
AU Step:         51 Time:      421.6760857205
C         -5.1761372226         0.6680250041         0.3785154035
N         -1.8137155311         0.2307112601         0.1311348197
H         -5.7362494589         1.7702242002         2.0497230528
H         -6.2332884893        -0.2243408988        -1.1731259737
H         -1.1670244987        -0.7798199212        -1.3788492049
H         -0.7154748111         1.0112990258         1.5101352543
           6
AU Step:         52 Time:      429.9442442640
C         -5.1885988672         0.6696496711         0.3794379976
N         -1.8032453091         0.2293491248         0.1303593894
H         -5.7436441096         1.7686701167         2.0463487141
H         -6.2394500069        -0.2210273596        -1.1687308719
H         -1.1593116465        -0.7793109204        -1.3768962009
H         -0.7084304797         1.0087779713         1.5070496636
           6
AU Step:         53 Time:      438.2124028076
C         -5.2009659098         0.6712623729         0.3803540034
N         -1.7928718915         0.2279990009         0.1295898616
H         -5.7509579734         1.7669757125         2.0427650169
H         -6.2454670812        -0.2176044636        -1.1641432173
H         -1.1516066781        -0.7788181636        -1.3749669346
H         -0.7013851867         1.0062796804         1.5040010823
           6
AU Step:         54 Time:      446.4805613511
C         -5.2132292648         0.6728619448         0.3812627545
N         -1.7826018199         0.2266617399         0.1288266897
H         -5.7582108913         1.7651892131         2.0390458284
H         -6.2513817514        -0.2141126163        -1.1594323836
H         -1.1438957597        -0.7783775434        -1.3731160805
H         -0.6943082400         1.0038342783         1.5010413289
           6
AU Step:         55 Time:      454.7487198947
C         -5.2253799568         0.6744472362         0.3821635904
N         -1.7724412796         0.2253381584         0.1280703152
H         -5.7654233741         1.7633607277         2.0352679317
H         -6.2572375948        -0.2105938272        -1.1546704767
H         -1.1361655555        -0.7780242476        -1.3713972401
H         -0.6871698931         1.0014712278         1.4982210629
           6
AU Step:         56 Time:      463.0168784382
C         -5.2374091790         0.6760171189         0.3830558610
N         -1.7623960364         0.2240290294         0.1273211639
H         -5.7726162974         1.7615416067         2.0315100468
H         -6.2630791296        -0.2070911869        -1.1499314250
H         -1.1284035981        -0.7777920784        -1.3698619142
H         -0.6799420368         0.9992187782         1.4955888243
           6
AU Step:         57 Time:      471.2850369817
C         -5.2493083608         0.6775704955         0.3839389303
N         -1.7524713761         0.2227350763         0.1265796426
H         -5.7798105694         1.7597837219         2.0278517426
H         -6.2689511537        -0.2036482765        -1.1452899535
H         -1.1205986497        -0.7777127792        -1.3685584871
H         -0.6725988772         0.9971034174         1.4931900809
           6
AU Step:         58 Time:      479.5531955253
C         -5.2610692429         0.6791063093         0.3848121821
N         -1.7426720441         0.2214569638         0.1258461331
H         -5.7870267796         1.7581386827         2.0243722394
H         -6.2748980329        -0.2003085193        -1.1408204619
H         -1.1127410565        -0.7778153668        -1.3675312162
H         -0.6651175910         0.9951493393         1.4910663034
           6
AU Step:         59 Time:      487.8213540688
C         -5.2726839561         0.6806235543         0.3856750252
N         -1.7330021899         0.2201952913         0.1251209891
H         -5.7942848314         1.7566569930         2.0211491269
H         -6.2809629473        -0.1971144851        -1.1365958192
H         -1.1048230775        -0.7781255032        -1.3668192831
H         -0.6574789443         0.9933779355         1.4892540842
           6
AU Step:         60 Time:      496.0895126123
C         -5.2841451058         0.6821212866         0.3865268989
N         -1.7234653182         0.2189505862         0.1244045309
H         -5.8016035655         1.7553871675         2.0182570181
H         -6.2871871079        -0.1941071545        -1.1326860922
H         -1.0968391749        -0.7786649269        -1.3664559309
H         -0.6496678355         0.9918073409         1.4877843509
           6
AU Step:         61 Time:      504.3576711559
C         -5.2954458572         0.6835986355         0.3873672794
N         -1.7140642491         0.2177232970         0.1236970403
H         -5.8090003808         1.7543748230         2.0157661653
H         -6.2936089662        -0.1913251694        -1.1291572514
H         -1.0887862648        -0.7794509491        -1.3664677018
H         -0.6416737566         0.9904520401         1.4866816891
           6
AU Step:         62 Time:      512.6258296994
C         -5.3065800193         0.6850548136         0.3881956848
N         -1.7048010887         0.2165137897         0.1229987571
H         -5.8164908696         1.7536617799         2.0137410875
H         -6.3002634293        -0.1888040759        -1.1260698637
H         -1.0806639059        -0.7804960585        -1.3668738354
H         -0.6334911549         0.9893225500         1.4859637976
           6
AU Step:         63 Time:      520.8939882430
C         -5.3175421250         0.6864891281         0.3890116815
N         -1.6956772129         0.2153223435         0.1223098750
H         -5.8240884699         1.7532851858         2.0122392335
H         -6.3071811200        -0.1865756022        -1.1234778471
H         -1.0724744264        -0.7818076303        -1.3676858223
H         -0.6251196705         0.9884251950         1.4856411076
           6
AU Step:         64 Time:      529.1621467865
C         -5.3283275022         0.6879009905         0.3898148891
N         -1.6866932651         0.2141491494         0.1216305386
H         -5.8318041573         1.7532767120         2.0113097592
H         -6.3143876986        -0.1846669837        -1.1214273077
H         -1.0642229834        -0.7833877563        -1.3689071420
H         -0.6165642465         0.9877619822         1.4857165778
           6
AU Step:         65 Time:      537.4303053300
C         -5.3389323354         0.6892899260         0.3906049846
N         -1.6778491673         0.2129943104         0.1209608405
H         -5.8396461796         1.7536618352         2.0109924279
H         -6.3219032697        -0.1831003645        -1.1199555033
H         -1.0559175470        -0.7852332100        -1.3705331977