           6
ANG Step:          0 Time:        0.0000000000
C         -2.4616955000         0.3174073000         0.1798604000
N         -1.1964046000         0.1528225000         0.0867777000
H         -2.8765847000         0.8857645000         1.0242489000
H         -3.1247795000        -0.1109239000        -0.5850034000
H         -0.7717551000        -0.3733585000        -0.6895899000
H         -0.5447596000         0.5391159000         0.7839497000
           6
ANG Step:          1 Time:        8.2681585435
C         -2.4619179780         0.3174362371         0.1798767752
N         -1.1962205812         0.1527985675         0.0867641530
H         -2.8765670486         0.8857192573         1.0241796613
H         -3.1247410129        -0.1108859532        -0.5849383543
H         -0.7717329987        -0.3733477914        -0.6895699216
H         -0.5447439620         0.5391002445         0.7839270404
           6
ANG Step:          2 Time:       16.5363170871
C         -2.4625840635         0.3175228732         0.1799258016
N         -1.1956696079         0.1527269109         0.0867235918
H         -2.8765151373         0.8855847529         1.0239737439
H         -3.1246271203        -0.1107729975        -0.5847448243
H         -0.7716660463        -0.3733163802        -0.6895110301
H         -0.5446960987         0.5390537832         0.7838599849
           6
ANG Step:          3 Time:       24.8044756306
C         -2.4636897783         0.3176666907         0.1800071865
N         -1.1947548748         0.1526079460         0.0866562517
H         -2.8764320792         0.8853646370         1.0236365140
H         -3.1244425023        -0.1105876707        -0.5844276032
H         -0.7715523033        -0.3732663944        -0.6894163330
H         -0.5446131687         0.5389780223         0.7837512883
           6
ANG Step:          4 Time:       33.0726341742
C         -2.4652286241         0.3178668444         0.1801204518
N         -1.1934815965         0.1524423512         0.0865625168
H         -2.8763230191         0.8850649460         1.0231768458
H         -3.1241948956        -0.1103343398        -0.5839946169
H         -0.7713885576        -0.3732013495        -0.6892909618
H         -0.5444904742         0.5388754444         0.7836054925
           6
ANG Step:          5 Time:       41.3407927177
C         -2.4671916880         0.3181221752         0.1802649417
N         -1.1918569199         0.1522310567         0.0864429135
H         -2.8761950745         0.8846940468         1.0226070421
H         -3.1238950113        -0.1100190598        -0.5834568569
H         -0.7711703651        -0.3731260967        -0.6891419974
H         -0.5443215211         0.5387494743         0.7834288657
           6
ANG Step:          6 Time:       49.6089512612
C         -2.4695677874         0.3184312285         0.1804398336
N         -1.1898898041         0.1519752284         0.0862981019
H         -2.8760572510         0.8842625578         1.0219427194
H         -3.1235564171        -0.1096495212        -0.5828282795
H         -0.7708921094        -0.3730467557        -0.6889783696
H         -0.5440981104         0.5386044286         0.7832293089
           6
ANG Step:          7 Time:       57.8771098048
C         -2.4723436459         0.3187922775         0.1806441504
N         -1.1875908739         0.1516762487         0.0861288645
H         -2.8759203303         0.8837832411         1.0212026538
H         -3.1231953799        -0.1092349757        -0.5821256700
H         -0.7705470842        -0.3729706220        -0.6888107227
H         -0.5438104529         0.5384454523         0.7830162416
           6
ANG Step:          8 Time:       66.1452683483
C         -2.4755041011         0.3192033502         0.1808767767
N         -1.1849722489         0.1513356951         0.0859360942
H         -2.8757967278         0.8832708631         1.0204085786
H         -3.1228306667        -0.1087861426        -0.5813684674
H         -0.7701275928        -0.3729060538        -0.6886512483
H         -0.5434473240         0.5382784349         0.7828004476
           6
ANG Step:          9 Time:       74.4134268919
C         -2.4790323342         0.3196622590         0.1811364749
N         -1.1820473544         0.1509553145         0.0857207798
H         -2.8757003202         0.8827420207         1.0195849330
H         -3.1224832965        -0.1083150917        -0.5805785421
H         -0.7696250707        -0.3728623324        -0.6885134810
H         -0.5429962439         0.5381099125         0.7825938969
           6
ANG Step:         10 Time:       82.6815854354
C         -2.4829101169         0.3201666329         0.1814219037
N         -1.1788307192         0.1505369979         0.0854839917
H         -2.8756462415         0.8822149292         1.0187585544
H         -3.1221762477        -0.1078350910        -0.5797799238
H         -0.7690302357        -0.3728494980        -0.6884120580
H         -0.5424436965         0.5379469507         0.7824095293
           6
ANG Step:         11 Time:       90.9497439789
C         -2.4871180713         0.3207139513         0.1817316372
N         -1.1753377646         0.1500827522         0.0852268657
H         -2.8756506450         0.8817091678         1.0179583071
H         -3.1219341139        -0.1073604223        -0.5789984757
H         -0.7683332558        -0.3728781604        -0.6883624404
H         -0.5417753755         0.5377970112         0.7822610119
           6
ANG Step:         12 Time:       99.2179025225
C         -2.4916359334         0.3213015783         0.1820641839
N         -1.1715845921         0.1495946731         0.0849505879
H         -2.8757304394         0.8812453850         1.0172146544
H         -3.1217827129        -0.1069061804        -0.5782615108
H         -0.7675239365        -0.3729592896        -0.6883806049
H         -0.5409764647         0.5376678002         0.7821624592
           6
ANG Step:         13 Time:      107.4860610660
C         -2.4964428186         0.3219267974         0.1824180072
N         -1.1675877719         0.1490749172         0.0846563789
H         -2.8759029938         0.8808449582         1.0165591589
H         -3.1217486480        -0.1064880342        -0.5775973514
H         -0.7665919268        -0.3731039812        -0.6884826984
H         -0.5400319421         0.5375671030         0.7821281304
           6
ANG Step:         14 Time:      115.7542196095
C         -2.5015174813         0.3225868452         0.1827915436
N         -1.1633641379         0.1485256753         0.0843454786
H         -2.8761858216         0.8805296137         1.0160239282
H         -3.1218588304        -0.1061219486        -0.5770348319
H         -0.7655269363        -0.3733232091        -0.6886846705
H         -0.5389269041         0.5375026055         0.7821720991
           6
ANG Step:         15 Time:      124.0223781531
C         -2.5068385641         0.3232789438         0.1831832214
N         -1.1589305950         0.1479491477         0.0840191322
H         -2.8765962509         0.8803210108         1.0156410076
H         -3.1221399680        -0.1058238687        -0.5766027508
H         -0.7643189628        -0.3736275645        -0.6890018838
H         -0.5376469015         0.5374817085         0.7823079077
           6
ANG Step:         16 Time:      132.2905366966
C         -2.5123848336         0.3240003318         0.1835914781
N         -1.1543039386         0.1473475200         0.0836785769
H         -2.8771510832         0.8802402896         1.0154417231
H         -3.1226180325        -0.1056093892        -0.5763292841
H         -0.7629585130        -0.3740269957        -0.6894487151
H         -0.5361782783         0.5375113397         0.7825482103
           6
ANG Step:         17 Time:      140.5586952402
C         -2.5181353989         0.3247482920         0.1840147762
N         -1.1495006905         0.1467229423         0.0833250294
H         -2.8778662565         0.8803075931         1.0154560065
H         -3.1233177137        -0.1054933736        -0.5762413674
H         -0.7614368299        -0.3745305560        -0.6900381478
H         -0.5345085086         0.5375977738         0.7829044051
           6
ANG Step:         18 Time:      148.8268537837
C         -2.5240699080         0.3255201778         0.1844516177
N         -1.1445369546         0.1460775102         0.0829596760
H         -2.8787565214         0.8805415400         1.0157117248
H         -3.1242618839        -0.1054895642        -0.5763640959
H         -0.7597461037        -0.3751462021        -0.6907813505
H         -0.5326265091         0.5377465018         0.7833862547
           6
ANG Step:         19 Time:      157.0950123272
C         -2.5301687225         0.3263134353         0.1849005576
N         -1.1394282918         0.1454132484         0.0825836625
H         -2.8798351684         0.8809583785         1.0162342241
H         -3.1254710530        -0.1056098477        -0.5767203262
H         -0.7578796933        -0.3758809644        -0.6916870616
H         -0.5305228990         0.5379624618         0.7840013045
           6
ANG Step:         20 Time:      165.3631708708
C         -2.5359492110         0.3270653256         0.1853260172
N         -1.1344811713         0.1447700003         0.0822195541
H         -2.8819748718         0.8820632446         1.0177094657
H         -3.1280072299        -0.1061080099        -0.5778530063
H         -0.7556334598        -0.3768324958        -0.6928811525
H         -0.5279594566         0.5382858842         0.7848428039
           6
ANG Step:         21 Time:      173.6313294143
C         -2.5416591464         0.3278080770         0.1857462325
N         -1.1295131185         0.1441240415         0.0818539215
H         -2.8866455475         0.8846638327         1.0212236081
H         -3.1336626484        -0.1073718041        -0.5806108891
H         -0.7518247492        -0.3785838849        -0.6951038830
H         -0.5233955339         0.5389232607         0.7864394427
           6
ANG Step:         22 Time:      181.8994879579
C         -2.5474893491         0.3285664685         0.1861753062
N         -1.1244377847         0.1434641783         0.0814804421
H         -2.8914968685         0.8874381993         1.0249884823
H         -3.1395710851        -0.1087529984        -0.5835875287
H         -0.7478478759        -0.3804412802        -0.6974722486
H         -0.5186238354         0.5396170415         0.7881532167
           6
ANG Step:         23 Time:      190.1676465014
C         -2.5534303018         0.3293392621         0.1866125389
N         -1.1192644512         0.1427916433         0.0810998376
H         -2.8965082806         0.8903585526         1.0289631562
H         -3.1456995329        -0.1102306432        -0.5867457658
H         -0.7437175574        -0.3823871930        -0.6999601844
H         -0.5136674223         0.5403541958         0.7899601409
           6
ANG Step:         24 Time:      198.4358050449
C         -2.5594731805         0.3301253105         0.1870572824
N         -1.1140018024         0.1421075890         0.0807127817
H         -2.9016585813         0.8933957030         1.0331044319
H         -3.1520139017        -0.1117826490        -0.5900463291
H         -0.7394492679        -0.3844029209        -0.7025399534
H         -0.5085505784         0.5411207751         0.7918347657
           6
ANG Step:         25 Time:      206.7039635885
C         -2.5656097972         0.3309235479         0.1875089357
N         -1.1086579562         0.1414130912         0.0803199017
H         -2.9069262615         0.8965195533         1.0373676487
H         -3.1584793780        -0.1133861600        -0.5934485733
H         -0.7350589927        -0.3864689234        -0.7051826328
H         -0.5032984021         0.5419022124         0.7937506272
           6
ANG Step:         26 Time:      214.9721221320
C         -2.5718325401         0.3317329853         0.1879669410
N         -1.1032404994         0.1407091529         0.0799217800
H         -2.9122898263         0.8996995915         1.0417074489
H         -3.1650609698        -0.1150179367        -0.5969111844
H         -0.7305629852        -0.3885651820        -0.7078586198
H         -0.4979363992         0.5426836068         0.7956807200
           6
ANG Step:         27 Time:      223.2402806756
C         -2.5781343121         0.3325527027         0.1884307789
N         -1.0977565281         0.1399967095         0.0795189572
H         -2.9177280881         0.9029053610         1.0460785010
H         -3.1717240104        -0.1166547229        -0.6003928411
H         -0.7259775315        -0.3906715482        -0.7105381372
H         -0.4924900957         0.5434499905         0.7975979553
           6
ANG Step:         28 Time:      231.5084392191
C         -2.5845084704         0.3333818363         0.1888999642
N         -1.0922126905         0.1392766338         0.0791119341
H         -2.9232204291         0.9061068969         1.0504361582
H         -3.1784346174        -0.1182735909        -0.6038528279
H         -0.7213187304        -0.3927680719        -0.7131917137
H         -0.4869846653         0.5441865882         0.7994756124
           6
ANG Step:         29 Time:      239.7765977626
C         -2.5909487679         0.3342195765         0.1893740422
N         -1.0866152306         0.1385497421         0.0787011756
H         -2.9287470282         0.9092751209         1.0547370593
H         -3.1851600968        -0.1198522528        -0.6072515868
H         -0.7166022866        -0.3948353157        -0.7157906508
H         -0.4814445886         0.5448790560         0.8012877575
           6
ANG Step:         30 Time:      248.0447563062
C         -2.5974492998         0.3350651604         0.1898525838
N         -1.0809700312         0.1378167993         0.0782871132
H         -2.9342890540         0.9123821873         1.0589396559
H         -3.1918692916        -0.1213693384        -0.6105512045
H         -0.7118433271        -0.3968546398        -0.7183074449
H         -0.4758933400         0.5455137047         0.8030096345
           6
ANG Step:         31 Time:      256.3129148497
C         -2.6040044519         0.3359178612         0.1903351825
N         -1.0752826570         0.1370785252         0.0778701490
H         -2.9398288241         0.9154017850         1.0630046680
H         -3.1985328747        -0.1228046360        -0.6137158350
H         -0.7070562376        -0.3988084631        -0.7207161763
H         -0.4703531120         0.5460777005         0.8046180167
           6
ANG Step:         32 Time:      264.5810733933
C         -2.6106088564         0.3367769851         0.1908214507
N         -1.0695583941         0.1363355995         0.0774506584
H         -2.9453499304         0.9183093901         1.0668954720
H         -3.2051235890        -0.1241392988        -0.6167120588
H         -0.7022545209        -0.4006804957        -0.7229928565
H         -0.4648445739         0.5465592434         0.8060915209
           6
ANG Step:         33 Time:      272.8492319368
C         -2.6172573497         0.3376418655         0.1913110166
N         -1.0638022887         0.1355886672         0.0770289935
H         -2.9508373351         0.9210824770         1.0705784195
H         -3.2116164382        -0.1253560165        -0.6195091813
H         -0.6974506779        -0.4024559413        -0.7251157307
H         -0.4593866631         0.5469477259         0.8074108824
           6
ANG Step:         34 Time:      281.1173904803
C         -2.6239449361         0.3385118598         0.1918035215
N         -1.0580191827         0.1348383433         0.0766054860
H         -2.9562774404         0.9237006872         1.0740231015
H         -3.2179888326        -0.1264391570        -0.6220794764
H         -0.6926561080        -0.4041216711        -0.7270655392
H         -0.4539964128         0.5472338672         0.8085591916
           6
ANG Step:         35 Time:      289.3855490239
C         -2.6306667553         0.3393863432         0.1922986169
N         -1.0522137458         0.1340852176         0.0761804501
H         -2.9616581342         0.9261459654         1.0772025540
H         -3.2242206962        -0.1273748788        -0.6243983801
H         -0.6878810322        -0.4056663701        -0.7288257368
H         -0.4486888129         0.5474098265         0.8095220892
           6
ANG Step:         36 Time:      297.6537075674
C         -2.6374180537         0.3402647053         0.1927959623
N         -1.0463905056         0.1333298588         0.0757541853
H         -2.9669688165         0.9284026619         1.0800934191
H         -3.2302945397        -0.1281512208        -0.6264446415
H         -0.6831344309        -0.4070806592        -0.7303826768
H         -0.4434766989         0.5474692962         0.8102879289
           6
ANG Step:         37 Time:      305.9218661109
C         -2.6441941588         0.3411463466         0.1932952234
N         -1.0405538744         0.1325728180         0.0753269786
H         -2.9722004089         0.9304576092         1.0826760640
H         -3.2361955047        -0.1287581692        -0.6282004359
H         -0.6784240049        -0.4083571857        -0.7317257475
H         -0.4383706719         0.5474075759         0.8108479037
           6
ANG Step:         38 Time:      314.1900246545
C         -2.6509904570         0.3420306741         0.1937960703
N         -1.0347081723         0.1318146328         0.0748991070
H         -2.9773453501         0.9323001750         1.0849346685
H         -3.2419113874        -0.1291877109        -0.6296514518
H         -0.6737561467        -0.4094906959        -0.7328474830
H         -0.4333790448         0.5472216260         0.8111961378
           6
ANG Step:         39 Time:      322.4581831980
C         -2.6578023742         0.3429171000         0.1942981757
N         -1.0288576486         0.1310558294         0.0744708392
H         -2.9823975813         0.9339222982         1.0868572829
H         -3.2474326387        -0.1294338675        -0.6307869447
H         -0.6691359289        -0.4104780822        -0.7337436347
H         -0.4285078097         0.5469101072         0.8113297528
           6
ANG Step:         40 Time:      330.7263417416
C         -2.6646253582         0.3438050401         0.1948012138
N         -1.0230064990         0.1302969262         0.0740424379
H         -2.9873525235         0.9353185089         1.0884358634
H         -3.2527523530        -0.1294927204        -0.6315997757
H         -0.6645671059        -0.4113184092        -0.7344132117
H         -0.4237606344         0.5464733987         0.8112488966
           6
ANG Step:         41 Time:      338.9945002851
C         -2.6714548639         0.3446939112         0.1953048592
N         -1.0171588804         0.1295384354         0.0736141605
H         -2.9922070470         0.9364859359         1.0896662879
H         -3.2578662434        -0.1293624251        -0.6320864310
H         -0.6600521297        -0.4120129157        -0.7348584856
H         -0.4191388775         0.5459136017         0.8109567477
           6
ANG Step:         42 Time:      347.2626588286
C         -2.6782863406         0.3455831292         0.1958087855
N         -1.0113189224         0.1287808651         0.0731862614
H         -2.9969594361         0.9374243010         1.0905483539
H         -3.2627726049        -0.1290432148        -0.6322470228
H         -0.6555921760        -0.4125649989        -0.7350849681
H         -0.4146416270         0.5452345261         0.8104594874
           6
ANG Step:         43 Time:      355.5308173722
C         -2.6851152203         0.3464721081         0.1963126649
N         -1.0054907356         0.1280247210         0.0727589926
H         -3.0016093492         0.9381359068         1.0910857618
H         -3.2674722713        -0.1285373986        -0.6320852803
H         -0.6511871828        -0.4129801768        -0.7351013540
H         -0.4102657590         0.5444416593         0.8097662438
           6
ANG Step:         44 Time:      363.7989759157
C         -2.6919369094         0.3473602583         0.1968161673
N         -0.9996784170         0.1272705066         0.0723326044
H         -3.0061577741         0.9386256109         1.0912860842
H         -3.2719685602        -0.1278493488        -0.6316085233
H         -0.6468359027        -0.4132660237        -0.7349194278
H         -0.4060060217         0.5435421176         0.8088890028
           6
ANG Step:         45 Time:      372.0671344593
C         -2.6987467812         0.3482469865         0.1973189597
N         -0.9938860515         0.1265187251         0.0719073469
H         -3.0106069796         0.9389007903         1.0911607143
H         -3.2762672106        -0.1269854800        -0.6308276197
H         -0.6425359658        -0.4134320883        -0.7345539397
H         -0.4018551435         0.5425445754         0.8078424826
           6
ANG Step:         46 Time:      380.3352930028
C         -2.7055401711         0.3491316939         0.1978207058
N         -0.9881177101         0.1257698788         0.0714834702
H         -3.0149604631         0.9389712960         1.0907248038
H         -3.2803763122        -0.1259542192        -0.6297569305
H         -0.6382839575        -0.4134897819        -0.7340224391
H         -0.3978039646         0.5414591767         0.8066439762
           6
ANG Step:         47 Time:      388.6034515463
C         -2.7123123734         0.3500137766         0.1983210656
N         -0.9823774452         0.1250244691         0.0710612244
H         -3.0192228917         0.9388493907         1.0899971691
H         -3.2843062190        -0.1247659621        -0.6284142284
H         -0.6340755075        -0.4134522438        -0.7333450723
H         -0.3938415935         0.5402974255         0.8053131573
           6
ANG Step:         48 Time:      396.8716100899
C         -2.7190586417         0.3508926252         0.1988196957
N         -0.9766692810         0.1242829956         0.0706408599
H         -3.0234000375         0.9385496698         1.0890001809
H         -3.2880694511        -0.1234330166        -0.6268205960
H         -0.6299053971        -0.4133341730        -0.7325443302
H         -0.3899555929         0.5390720521         0.8038718446
           6
ANG Step:         49 Time:      405.1397686334
C         -2.7257741915         0.3517676258         0.1993162493
N         -0.9709972011         0.1235459556         0.0702226273
H         -3.0274987046         0.9380889621         1.0877596134
H         -3.2916805785        -0.1219695276        -0.6250002917
H         -0.6257676761        -0.4131516392        -0.7316447632
H         -0.3861321950         0.5377968538         0.8023437222
           6
ANG Step:         50 Time:      413.4079271770
C         -2.7324542062         0.3526381601         0.1998103763
N         -0.9653651318         0.1228138418         0.0698067768
H         -3.0315266470         0.9374862068         1.0863044638
H         -3.2951560837        -0.1203913821        -0.6229805808
H         -0.6216557977        -0.4129218556        -0.7306726406
H         -0.3823565428         0.5364865142         0.8007540215
           6
ANG Step:         51 Time:      421.6760857205
C         -2.7390938467         0.3535036069         0.2003017246
N         -0.9597769219         0.1220871406         0.0693935578
H         -3.0354924764         0.9367623008         1.0846667235
H         -3.2985142031        -0.1187160906        -0.6207915281
H         -0.6175627666        -0.4126629291        -0.7296555733
H         -0.3786129633         0.5351563955         0.7991291585
           6
ANG Step:         52 Time:      429.9442442640
C         -2.7456882651         0.3543633437         0.2007899404
N         -0.9542363191         0.1213663297         0.0689832178
H         -3.0394055571         0.9359399153         1.0828811003
H         -3.3017747378        -0.1169626412        -0.6184657404
H         -0.6134813010        -0.4123935775        -0.7286220881
H         -0.3748852637         0.5338223110         0.7974963342
           6
ANG Step:         53 Time:      438.2124028076
C         -2.7522326221         0.3552167487         0.2012746698
N         -0.9487469429         0.1206518748         0.0685760012
H         -3.0432758871         0.9350432752         1.0809846895
H         -3.3049588364        -0.1151513226        -0.6160380582
H         -0.6094040073        -0.4121328218        -0.7276011643
H         -0.3711570553         0.5325002724         0.7958830945
           6
ANG Step:         54 Time:      446.4805613511
C         -2.7587221101         0.3560632057         0.2017555601
N         -0.9433122551         0.1199442268         0.0681721480
H         -3.0471139659         0.9340979004         1.0790165797
H         -3.3080887451        -0.1133035166        -0.6135451923
H         -0.6053235651        -0.4118996556        -0.7266217346
H         -0.3674120963         0.5312062213         0.7943168604
           6
ANG Step:         55 Time:      454.7487198947
C         -2.7651519794         0.3569021058         0.2022322620
N         -0.9379355287         0.1192438176         0.0677718919
H         -3.0509306474         0.9331303076         1.0770174028
H         -3.3111875239        -0.1114414536        -0.6110252997
H         -0.6012329172        -0.4117126996        -0.7257121634
H         -0.3636346458         0.5299557488         0.7928244399
           6
ANG Step:         56 Time:      463.0168784382
C         -2.7715175696         0.3577328520         0.2027044312
N         -0.9326198150         0.1185510564         0.0673754581
H         -3.0547369785         0.9321676702         1.0750288158
H         -3.3142787310        -0.1095879362        -0.6085175016
H         -0.5971254662        -0.4115898409        -0.7248997039
H         -0.3598098290         0.5287638038         0.7914315192
           6
ANG Step:         57 Time:      471.2850369817
C         -2.7778143454         0.3585548635         0.2031717314
N         -0.9273679109         0.1178663260         0.0669830619
H         -3.0585440233         0.9312374377         1.0730929246
H         -3.3173860723        -0.1077660265        -0.6060613406
H         -0.5929952654        -0.4115478776        -0.7242099600
H         -0.3559239963         0.5276444031         0.7901621589
           6
ANG Step:         58 Time:      479.5531955253
C         -2.7840379362         0.3593675811         0.2036338363
N         -0.9221823278         0.1171899779         0.0665949054
H         -3.0623626773         0.9303669204         1.0712516508
H         -3.3205330252        -0.1059987031        -0.6036961875
H         -0.5888372062        -0.4116021646        -0.7236663517
H         -0.3519650702         0.5266103495         0.7890383043
           6
ANG Step:         59 Time:      487.8213540688
C         -2.7901841777         0.3601704726         0.2040904333
N         -0.9170652613         0.1165223296         0.0662111757
H         -3.0662034729         0.9295828440         1.0695460531
H         -3.3237424397        -0.1043084930        -0.6014606029
H         -0.5846471921        -0.4117662817        -0.7232896129
H         -0.3479228725         0.5256729630         0.7880793191
           6
ANG Step:         60 Time:      496.0895126123
C         -2.7962491569         0.3609630384         0.2045412254
N         -0.9120185662         0.1158636600         0.0658320424
H         -3.0700763801         0.9289108813         1.0680156150
H         -3.3270361236        -0.1027170822        -0.5993916645
H         -0.5804222928        -0.4120517325        -0.7230973352
H         -0.3437894117         0.5248418401         0.7873015698
           6
ANG Step:         61 Time:      504.3576711559
C         -2.8022292569         0.3617448177         0.2049859356
N         -0.9070437347         0.1152142066         0.0654576545
H         -3.0739906062         0.9283751717         1.0666975125
H         -3.3304344247        -0.1012449191        -0.5975242823
H         -0.5761608763        -0.4124676775        -0.7231035641
H         -0.3395591274         0.5241246458         0.7867180663
           6
ANG Step:         62 Time:      512.6258296994
C         -2.8081212018         0.3625153940         0.2054243089
N         -0.9021418813         0.1145741628         0.0650881389
H         -3.0779544021         0.9279978455         1.0656258875
H         -3.3339558149        -0.0999108139        -0.5958905072
H         -0.5718627092        -0.4130207255        -0.7233184807
H         -0.3352290810         0.5235269454         0.7863381745
           6
ANG Step:         63 Time:      520.8939882430
C         -2.8139220983         0.3632744005         0.2058561157
N         -0.8973137342         0.1139436767         0.0647235983
H         -3.0819748791         0.9277985605         1.0648311406
H         -3.3376164991        -0.0987315563        -0.5945188710
H         -0.5675290233        -0.4137147795        -0.7237481657
H         -0.3307990822         0.5230520856         0.7861674143
           6
ANG Step:         64 Time:      529.1621467865
C         -2.8196294741         0.3640215260         0.2062811549
N         -0.8925596338         0.1133228491         0.0643641089
H         -3.0860578450         0.9277940763         1.0643392840
H         -3.3414300563        -0.0977215589        -0.5934337723
H         -0.5631625477        -0.4145509461        -0.7243944602
H         -0.3262717469         0.5227011285         0.7862073514
           6
ANG Step:         65 Time:      537.4303053300
C         -2.8252413101         0.3647565189         0.2066992554
N         -0.8878795388         0.1127117346         0.0640097199
H         -3.0902076645         0.9279978748         1.0641713595
H         -3.3454071253        -0.0968925398        -0.5926549270