           6
AU Step:          0 Time:        0.0000000000
C          0.0000000000         0.0000000000         0.0000000000
N          0.0000000000         0.0000000000         0.0000000000
H          0.0000000000         0.0000000000         0.0000000000
H          0.0000000000         0.0000000000         0.0000000000
H          0.0000000000         0.0000000000         0.0000000000
H          0.0000000000         0.0000000000         0.0000000000
           6
AU Step:          1 Time:        8.2681585435
C         -0.0001015427         0.0000132074         0.0000074739
N          0.0000839929        -0.0000109237        -0.0000061833
H          0.0000079494        -0.0000205410        -0.0000314441
H          0.0000174136         0.0000172447         0.0000295493
H          0.0000101768         0.0000048133         0.0000090130
H          0.0000072568        -0.0000070985        -0.0000102524
           6
AU Step:          2 Time:       16.5363170871
C         -0.0002024766         0.0000263356         0.0000149031
N          0.0001674970        -0.0000217837        -0.0000123307
H          0.0000154239        -0.0000405251        -0.0000620694
H          0.0000341130         0.0000340869         0.0000583673
H          0.0000206494         0.0000093018         0.0000175517
H          0.0000149467        -0.0000139672        -0.0000200845
           6
AU Step:          3 Time:       24.8044756306
C         -0.0003022133         0.0000393081         0.0000222441
N          0.0002500401        -0.0000325187        -0.0000184072
H          0.0000219548        -0.0000594021        -0.0000910674
H          0.0000493935         0.0000501286         0.0000857317
H          0.0000317107         0.0000131454         0.0000251488
H          0.0000234982        -0.0000203801        -0.0000290827
           6
AU Step:          4 Time:       33.0726341742
C         -0.0004001889         0.0000520516         0.0000294556
N          0.0003311705        -0.0000430699        -0.0000243797
H          0.0000270843        -0.0000766333        -0.0001176453
H          0.0000625658         0.0000649793         0.0001109343
H          0.0000436469         0.0000160328         0.0000313503
H          0.0000333287        -0.0000261179        -0.0000368456
           6
AU Step:          5 Time:       41.3407927177
C         -0.0004958680         0.0000644963         0.0000364981
N          0.0004104604        -0.0000533816        -0.0000302166
H          0.0000303713        -0.0000916948        -0.0001410327
H          0.0000729636         0.0000782592         0.0001332859
H          0.0000567328         0.0000176666         0.0000357222
H          0.0000448383        -0.0000309710        -0.0000429893
           6
AU Step:          6 Time:       49.6089512612
C         -0.0005887520         0.0000765775         0.0000433350
N          0.0004875123        -0.0000634020        -0.0000358887
H          0.0000313970        -0.0001040844        -0.0001604897
H          0.0000799520         0.0000896030         0.0001521245
H          0.0000712269         0.0000177672         0.0000378572
H          0.0000584035        -0.0000347428        -0.0000471536
           6
AU Step:          7 Time:       57.8771098048
C         -0.0006783861         0.0000882360         0.0000499327
N          0.0005619651        -0.0000730842        -0.0000413693
H          0.0000297719        -0.0001133282        -0.0001753175
H          0.0000829368         0.0000986646         0.0001668234
H          0.0000873669         0.0000160790         0.0000373826
H          0.0000743701        -0.0000372537        -0.0000490091
           6
AU Step:          8 Time:       66.1452683483
C         -0.0007643654         0.0000994192         0.0000562615
N          0.0006334986        -0.0000823864        -0.0000466348
H          0.0000251422        -0.0001189879        -0.0001848688
H          0.0000813750         0.0001051219         0.0001768016
H          0.0001053652         0.0000123750         0.0000339680
H          0.0000930456        -0.0000383446        -0.0000482644
           6
AU Step:          9 Time:       74.4134268919
C         -0.0008463397         0.0001100814         0.0000622957
N          0.0007018376        -0.0000912730        -0.0000516651
H          0.0000171972        -0.0001206693        -0.0001885604
H          0.0000747853         0.0001086836         0.0001815345
H          0.0001254030         0.0000064631         0.0000273340
H          0.0001146919        -0.0000378811        -0.0000446731
           6
AU Step:         10 Time:       82.6815854354
C         -0.0009240164         0.0001201846         0.0000680136
N          0.0007667540        -0.0000997141        -0.0000564432
H          0.0000056768        -0.0001180317        -0.0001858865
H          0.0000627591         0.0001090971         0.0001805658
H          0.0001476251        -0.0000018088         0.0000172605
H          0.0001395176        -0.0000357575        -0.0000380412
           6
AU Step:         11 Time:       90.9497439789
C         -0.0009971630         0.0001296985         0.0000733981
N          0.0008280680        -0.0001076864        -0.0000609560
H         -0.0000096219        -0.0001107969        -0.0001764328
H          0.0000449721         0.0001061534         0.0001735202
H          0.0001721359        -0.0000125467         0.0000035944
H          0.0001676713        -0.0000319006        -0.0000282345
           6
AU Step:         12 Time:       99.2179025225
C         -0.0010656072         0.0001386008         0.0000784365
N          0.0008856485        -0.0001151727        -0.0000651937
H         -0.0000288377        -0.0000987596        -0.0001598909
H          0.0000211946         0.0000996942         0.0001601167
H          0.0001989944        -0.0000258062        -0.0000137428
H          0.0001992349        -0.0000262733        -0.0000151853
           6
AU Step:         13 Time:      107.4860610660
C         -0.0011292369         0.0001468769         0.0000831207
N          0.0009394115        -0.0001221622        -0.0000691503
H         -0.0000520399        -0.0000817964        -0.0001360730
H         -0.0000086985         0.0000896199         0.0001401816
H          0.0002282118        -0.0000415877        -0.0000347478
H          0.0002342183        -0.0000188780         0.0000011016
           6
AU Step:         14 Time:      115.7542196095
C         -0.0011879980         0.0001545197         0.0000874466
N          0.0009893190        -0.0001286499        -0.0000728228
H         -0.0000792236        -0.0000598753        -0.0001049239
H         -0.0000447190         0.0000758991         0.0001136603
H          0.0002597483        -0.0000598337        -0.0000593311
H          0.0002725561        -0.0000097587         0.0000205445
           6
AU Step:         15 Time:      124.0223781531
C         -0.0012418920         0.0001615295         0.0000914144
N          0.0010353754        -0.0001346364        -0.0000762117
H         -0.0001103075        -0.0000330632        -0.0000665328
H         -0.0000867596         0.0000585739         0.0000806281
H          0.0002935125        -0.0000804269        -0.0000873130
H          0.0003141056         0.0000009981         0.0000429810
           6
AU Step:         16 Time:      132.2905366966
C         -0.0012909721         0.0001679132         0.0000950279
N          0.0010776243        -0.0001401275        -0.0000793202
H         -0.0001451328        -0.0000015333        -0.0000211414
H         -0.0001345896         0.0000377681         0.0000412979
H          0.0003293624        -0.0001031915        -0.0001184215
H          0.0003586472         0.0000132636         0.0000681661
           6
AU Step:         17 Time:      140.5586952402
C         -0.0013353391         0.0001736839         0.0000982945
N          0.0011161448        -0.0001451333        -0.0000821541
H         -0.0001834652         0.0000344261         0.0000308551
H         -0.0001878549         0.0000136933        -0.0000039782
H          0.0003671056        -0.0001278999        -0.0001522900
H          0.0004058867         0.0000268737         0.0000957695
           6
AU Step:         18 Time:      148.8268537837
C         -0.0013751361         0.0001788604         0.0001012247
N          0.0011510468        -0.0001496683        -0.0000847214
H         -0.0002250020         0.0000743700         0.0000889326
H         -0.0002460779        -0.0000133103        -0.0000547341
H          0.0004065001        -0.0001543211        -0.0001884335
H          0.0004554648         0.0000416756         0.0001253507
           6
AU Step:         19 Time:      157.0950123272
C         -0.0013575350         0.0001765754         0.0000999240
N          0.0011491480        -0.0001494187        -0.0000845792
H         -0.0003677845         0.0001738963         0.0002282965
H         -0.0004280081        -0.0000706743        -0.0001701487
H          0.0004699820        -0.0001927051        -0.0002399598
H          0.0005333383         0.0000616392         0.0001664505
           6
AU Step:         20 Time:      165.3631708708
C         -0.0013427625         0.0001746627         0.0000988250
N          0.0011551027        -0.0001501906        -0.0000850137
H         -0.0009463556         0.0005149019         0.0006933140
H         -0.0011382865        -0.0002448377        -0.0005406242
H          0.0008413820        -0.0003755920        -0.0004747941
H          0.0009904033         0.0001335105         0.0003387984
           6
AU Step:         21 Time:      173.6313294143
C         -0.0013187761         0.0001715466         0.0000970545
N          0.0011477314        -0.0001492258        -0.0000844637
H         -0.0010881483         0.0006142355         0.0008318266
H         -0.0013214865        -0.0003022622        -0.0006553259
H          0.0008897157        -0.0004124022        -0.0005246582
H          0.0010668498         0.0001521211         0.0003783051
           6
AU Step:         22 Time:      181.8994879579
C         -0.0013451762         0.0001749797         0.0000989992
N          0.0011711903        -0.0001522629        -0.0000861747
H         -0.0011270868         0.0006507774         0.0008844549
H         -0.0013755430        -0.0003267005        -0.0007010773
H          0.0009264682        -0.0004346319        -0.0005549652
H          0.0011117026         0.0001635234         0.0004023360
           6
AU Step:         23 Time:      190.1676465014
C         -0.0013694802         0.0001781403         0.0001007899
N          0.0011925962        -0.0001550274        -0.0000877262
H         -0.0011612534         0.0006808076         0.0009274690
H         -0.0014219318        -0.0003462204        -0.0007380945
H          0.0009597705        -0.0004527257        -0.0005791238
H          0.0011511449         0.0001718427         0.0004207176
           6
AU Step:         24 Time:      198.4358050449
C         -0.0013918402         0.0001810479         0.0001024378
N          0.0012120819        -0.0001575372        -0.0000891290
H         -0.0011905390         0.0007040627         0.0009604429
H         -0.0014604466        -0.0003606040        -0.0007659789
H          0.0009894776        -0.0004664492        -0.0005968075
H          0.0011849439         0.0001769032         0.0004331666
           6
AU Step:         25 Time:      206.7039635885
C         -0.0014123946         0.0001837208         0.0001039534
N          0.0012297730        -0.0001598095        -0.0000903936
H         -0.0012149103         0.0007203915         0.0009831298
H         -0.0014909841        -0.0003697200        -0.0007844973
H          0.0010155006        -0.0004756521        -0.0006078030
H          0.0012129600         0.0001785962         0.0004395054
           6
AU Step:         26 Time:      214.9721221320
C         -0.0014312681         0.0001861755         0.0001053458
N          0.0012457861        -0.0001618603        -0.0000915298
H         -0.0012344039         0.0007297530         0.0009954529
H         -0.0015135612        -0.0003735226        -0.0007935724
H          0.0010378051        -0.0004802647        -0.0006120127
H          0.0012351444         0.0001768759         0.0004396624
           6
AU Step:         27 Time:      223.2402806756
C         -0.0014485714         0.0001884263         0.0001066234
N          0.0012602285        -0.0001637045        -0.0000925470
H         -0.0012491201         0.0007322097         0.0009974936
H         -0.0015283047        -0.0003720475        -0.0007932725
H          0.0010564087        -0.0004802950        -0.0006094517
H          0.0012515349         0.0001717567         0.0004336702
           6
AU Step:         28 Time:      231.5084392191
C         -0.0014644018         0.0001904859         0.0001077936
N          0.0012731977        -0.0001653556        -0.0000934539
H         -0.0012592150         0.0007279191         0.0009894769
H         -0.0015354401        -0.0003654052        -0.0007837991
H          0.0010713779        -0.0004758242        -0.0006002432
H          0.0012622510         0.0001633098         0.0004216607
           6
AU Step:         29 Time:      239.7765977626
C         -0.0014788434         0.0001923658         0.0001088628
N          0.0012847811        -0.0001668260        -0.0000942583
H         -0.0012648929         0.0007171234         0.0009717570
H         -0.0015352787        -0.0003537738        -0.0007654726
H          0.0010828238        -0.0004670021        -0.0005846121
H          0.0012674870         0.0001516593         0.0004038586
           6
AU Step:         30 Time:      248.0447563062
C         -0.0014919687         0.0001940754         0.0001098365
N          0.0012950562        -0.0001681267        -0.0000949675
H         -0.0012663980         0.0007001388         0.0009448002
H         -0.0015282053        -0.0003373905        -0.0007387170
H          0.0010908970        -0.0004540407        -0.0005628759
H          0.0012675043         0.0001369779         0.0003805731
           6
AU Step:         31 Time:      256.3129148497
C         -0.0015038390         0.0001956228         0.0001107195
N          0.0013040914        -0.0001692676        -0.0000955878
H         -0.0012640074         0.0006773449         0.0009091694
H         -0.0015146657        -0.0003165437        -0.0007040460
H          0.0010957831        -0.0004372086        -0.0005354363
H          0.0012626235         0.0001194814         0.0003521897
           6
AU Step:         32 Time:      264.5810733933
C         -0.0015145057         0.0001970146         0.0001115157
N          0.0013119458        -0.0001702570        -0.0000961250
H         -0.0012580232         0.0006491743         0.0008655081
H         -0.0014951547        -0.0002915650        -0.0006620481
H          0.0010976977        -0.0004168241        -0.0005027693
H          0.0012532165         0.0000994242         0.0003191612
           6
AU Step:         33 Time:      272.8492319368
C         -0.0015240116         0.0001982568         0.0001122284
N          0.0013186702        -0.0001711024        -0.0000965840
H         -0.0012487666         0.0006161030         0.0008145264
H         -0.0014702057        -0.0002628216        -0.0006133741
H          0.0010968810        -0.0003932483        -0.0004654153
H          0.0012396989         0.0000770942         0.0002819988
           6
AU Step:         34 Time:      281.1173904803
C         -0.0015323911         0.0001993542         0.0001128603
N          0.0013243077        -0.0001718102        -0.0000969693
H         -0.0012365720         0.0005786419         0.0007569884
H         -0.0014403809        -0.0002307102        -0.0005587246
H          0.0010935935        -0.0003668792        -0.0004239696
H          0.0012225217         0.0000528076         0.0002412631
           6
AU Step:         35 Time:      289.3855490239
C         -0.0015396719         0.0002003105         0.0001134135
N          0.0013288941        -0.0001723856        -0.0000972844
H         -0.0012217819         0.0005373291         0.0006936997
H         -0.0014062633        -0.0001956501        -0.0004988394
H          0.0010881118        -0.0003381453        -0.0003790736
H          0.0012021648         0.0000269042         0.0001975555
           6
AU Step:         36 Time:      297.6537075674
C         -0.0015458755         0.0002011285         0.0001138895
N          0.0013324589        -0.0001728330        -0.0000975324
H         -0.0012047430         0.0004927231         0.0006254981
H         -0.0013684491        -0.0001580787        -0.0004344888
H          0.0010807238        -0.0003074992        -0.0003314055
H          0.0011791296        -0.0000002572         0.0001515105
           6
AU Step:         37 Time:      305.9218661109
C         -0.0015510180         0.0002018102         0.0001142897
N          0.0013350258        -0.0001731560        -0.0000977161
H         -0.0011858025         0.0004453974         0.0005532450
H         -0.0013275423        -0.0001184473        -0.0003664657
H          0.0010717253        -0.0002754126        -0.0002816715
H          0.0011539329        -0.0000283031         0.0001037877
           6
AU Step:         38 Time:      314.1900246545
C         -0.0015551105         0.0002023570         0.0001146147
N          0.0013366134        -0.0001733574        -0.0000978373
H         -0.0011653056         0.0003959354         0.0004778185
H         -0.0012841496        -0.0000772170        -0.0002955793
H          0.0010614165        -0.0002423704        -0.0002305988
H          0.0011271015        -0.0000568494         0.0000550644
           6
AU Step:         39 Time:      322.4581831980
C         -0.0015581601         0.0002027698         0.0001148651
N          0.0013372360        -0.0001734395        -0.0000978979
H         -0.0011435930         0.0003449271         0.0004001072
H         -0.0012388766        -0.0000348557        -0.0002226492
H          0.0010500990        -0.0002088662        -0.0001789273
H          0.0010991662        -0.0000855054         0.0000060291
           6
AU Step:         40 Time:      330.7263417416
C         -0.0015601701         0.0002030492         0.0001150411
N          0.0013369040        -0.0001734037        -0.0000978990
H         -0.0011209995         0.0002929657         0.0003210056
H         -0.0011923245         0.0000081642        -0.0001485018
H          0.0010380723        -0.0001753967        -0.0001274022
H          0.0010706565        -0.0001138780        -0.0000426260
           6
AU Step:         41 Time:      338.9945002851
C         -0.0015611406         0.0002031953         0.0001151426
N          0.0013356250        -0.0001732514        -0.0000978416
H         -0.0010978523         0.0002406443         0.0002414098
H         -0.0011450876         0.0000513683        -0.0000739657
H          0.0010256310        -0.0001424569        -0.0000767665
H          0.0010420958        -0.0001415751        -0.0000902116
           6
AU Step:         42 Time:      347.2626588286
C         -0.0015610690         0.0002032076         0.0001151693
N          0.0013334044        -0.0001729832        -0.0000977263
H         -0.0010744700         0.0001885543         0.0001622137
H         -0.0010977512         0.0000942818         0.0000001315
H          0.0010130624        -0.0001105360        -0.0000277544
H          0.0010139963        -0.0001682096        -0.0001360476
           6
AU Step:         43 Time:      355.5308173722
C         -0.0015599505         0.0002030856         0.0001151209
N          0.0013302459        -0.0001725997        -0.0000975536
H         -0.0010511615         0.0001372825         0.0000843059
H         -0.0010508892         0.0001364318         0.0000729660
H          0.0010006435        -0.0000801112         0.0000189175
H          0.0009868539        -0.0001934039        -0.0001794708
           6
AU Step:         44 Time:      363.7989759157
C         -0.0015577784         0.0002028284         0.0001149967
N          0.0013261523        -0.0001721012        -0.0000973238
H         -0.0010282252         0.0000874088         0.0000085654
H         -0.0010050622         0.0001773491         0.0001437221
H          0.0009886380        -0.0000516432         0.0000625570
H          0.0009611427        -0.0002167937        -0.0002198423
           6
AU Step:         45 Time:      372.0671344593
C         -0.0015545444         0.0002024349         0.0001147960
N          0.0013211267        -0.0001714877        -0.0000970368
H         -0.0010059478         0.0000395040        -0.0000641416
H         -0.0009608154         0.0002165704         0.0002115951
H          0.0009772934        -0.0000255705         0.0001025055
H          0.0009373092        -0.0002380329        -0.0002565556
           6
AU Step:         46 Time:      380.3352930028
C         -0.0015502396         0.0002019041         0.0001145180
N          0.0013151728        -0.0001707596        -0.0000966926
H         -0.0009846034        -0.0000058738        -0.0001329668
H         -0.0009186764         0.0002536406         0.0002757959
H          0.0009668386        -0.0000023033         0.0001381461
H          0.0009157671        -0.0002567983        -0.0002890445
           6
AU Step:         47 Time:      388.6034515463
C         -0.0015448547         0.0002012345         0.0001141619
N          0.0013082959        -0.0001699170        -0.0000962912
H         -0.0009644520        -0.0000481823        -0.0001970853
H         -0.0008791514         0.0002881163         0.0003355565
H          0.0009574795         0.0000177826         0.0001689143
H          0.0008968909        -0.0002727942        -0.0003167918
           6
AU Step:         48 Time:      396.8716100899
C         -0.0015383806         0.0002004252         0.0001137269
N          0.0013005039        -0.0001689606        -0.0000958326
H         -0.0009457378        -0.0000868997        -0.0002557019
H         -0.0008427221         0.0003195691         0.0003901356
H          0.0009493968         0.0000343523         0.0001943068
H          0.0008810095        -0.0002857587        -0.0003393391
           6
AU Step:         49 Time:      405.1397686334
C         -0.0015308093         0.0001994751         0.0001132123
N          0.0012918080        -0.0001678910        -0.0000953168
H         -0.0009286872        -0.0001215297        -0.0003080594
H         -0.0008098414         0.0003475899         0.0004388267
H          0.0009427422         0.0000471185         0.0002138917
H          0.0008683991        -0.0002954684        -0.0003562965
           6
AU Step:         50 Time:      413.4079271770
C         -0.0015221346         0.0001983833         0.0001126175
N          0.0012822235        -0.0001667095        -0.0000947438
H         -0.0009135069        -0.0001516073        -0.0003534472
H         -0.0007809284         0.0003717941         0.0004809663
H          0.0009376351         0.0000558485         0.0002273193
H          0.0008592777        -0.0003017445        -0.0003673517
           6
AU Step:         51 Time:      421.6760857205
C         -0.0015123529         0.0001971494         0.0001119420
N          0.0012717710        -0.0001654178        -0.0000941141
H         -0.0009003808        -0.0001767061        -0.0003912128
H         -0.0007563621         0.0003918273         0.0005159439
H          0.0009341596         0.0000603702         0.0002343317
H          0.0008537978        -0.0003044580        -0.0003722798
           6
AU Step:         52 Time:      429.9442442640
C         -0.0015014641         0.0001957733         0.0001111856
N          0.0012604765        -0.0001640183        -0.0000934282
H         -0.0008894674        -0.0001964457        -0.0004207730
H         -0.0007364755         0.0004073722         0.0005432138
H          0.0009323612         0.0000605792         0.0002347724
H          0.0008520413        -0.0003035347        -0.0003709515
           6
AU Step:         53 Time:      438.2124028076
C         -0.0014894730         0.0001942557         0.0001103484
N          0.0012483728        -0.0001625141        -0.0000926869
H         -0.0008808964        -0.0002105005        -0.0004416271
H         -0.0007215479         0.0004181550         0.0005623071
H          0.0009322443         0.0000564441         0.0002285951
H          0.0008540136        -0.0002989597        -0.0003633418
           6
AU Step:         54 Time:      446.4805613511
C         -0.0014763896         0.0001925981         0.0001094311
N          0.0012354995        -0.0001609090        -0.0000918915
H         -0.0008747656        -0.0002186088        -0.0004533709
H         -0.0007117978         0.0004239539         0.0005728446
H          0.0009337703         0.0000480105         0.0002158700
H          0.0008596408        -0.0002907814        -0.0003495349
           6
AU Step:         55 Time:      454.7487198947
C         -0.0014622309         0.0001908027         0.0001084345
N          0.0012219035        -0.0001592078        -0.0000910436
H         -0.0008711375        -0.0002205815        -0.0004557110
H         -0.0007073751         0.0004246066         0.0005745511
H          0.0009368568         0.0000354048         0.0001967891
H          0.0008687668        -0.0002791129        -0.0003297291
           6
AU Step:         56 Time:      463.0168784382
C         -0.0014470214         0.0001888727         0.0001073600
N          0.0012076391        -0.0001574161        -0.0000901454
H         -0.0008700362        -0.0002163121        -0.0004484789
H         -0.0007083536         0.0004200180         0.0005672680
H          0.0009413768         0.0000188354         0.0001716678
H          0.0008811524        -0.0002641344        -0.0003042384
           6
AU Step:         57 Time:      471.2850369817
C         -0.0014307940         0.0001868125         0.0001062099
N          0.0011927681        -0.0001555404        -0.0000891995
H         -0.0008714445        -0.0002057849        -0.0004316443
H         -0.0007147240         0.0004101680         0.0005509669
H          0.0009471602        -0.0000014083         0.0001409442
H          0.0008964781        -0.0002460910        -0.0002734902
           6
AU Step:         58 Time:      479.5531955253
C         -0.0014135914         0.0001846275         0.0001049868
N          0.0011773593        -0.0001535883        -0.0000882091
H         -0.0008753014        -0.0001890825        -0.0004053270
H         -0.0007263887         0.0003951177         0.0005257600
H          0.0009539955        -0.0000249586         0.0001051748
H          0.0009143471        -0.0002252909        -0.0002380214
           6
AU Step:         59 Time:      487.8213540688
C         -0.0013954657         0.0001823246         0.0001036940
N          0.0011614875        -0.0001515681        -0.0000871779
H         -0.0008815014        -0.0001663923        -0.0003698055
H         -0.0007431567         0.0003750149         0.0004919094
H          0.0009616338        -0.0000513754         0.0000650257
H          0.0009342924        -0.0002021005        -0.0001984694
           6
AU Step:         60 Time:      496.0895126123
C         -0.0013764795         0.0001799120         0.0001023356
N          0.0011452333        -0.0001494888        -0.0000861104
H         -0.0008898928        -0.0001380096        -0.0003255236
H         -0.0007647422         0.0003500970         0.0004498322
H          0.0009697935        -0.0000801536         0.0000212612
H          0.0009557864        -0.0001769376        -0.0001555603
           6
AU Step:         61 Time:      504.3576711559
C         -0.0013567056         0.0001773991         0.0001009164
N          0.0011286812        -0.0001473603        -0.0000850113
H         -0.0009002793        -0.0001043393        -0.0002730917
H         -0.0007907638         0.0003206928         0.0004001029
H          0.0009781664        -0.0001107339        -0.0000252719
H          0.0009782517        -0.0001502627        -0.0001100942
           6
AU Step:         62 Time:      512.6258296994
C         -0.0013362267         0.0001747966         0.0000994419
N          0.0011119185        -0.0001451928        -0.0000838860
H         -0.0009124214        -0.0000658936        -0.0002132840
H         -0.0008207483         0.0002872204         0.0003434504
H          0.0009864251        -0.0001425155        -0.0000736633
H          0.0010010745        -0.0001225693        -0.0000629270
           6
AU Step:         63 Time:      520.8939882430
C         -0.0013151346         0.0001721167         0.0000979181
N          0.0010950336        -0.0001429968        -0.0000827402
H         -0.0009260398        -0.0000232862        -0.0001470296
H         -0.0008541363         0.0002501822         0.0002807491
H          0.0009942312        -0.0001748695        -0.0001229601
H          0.0010236202        -0.0000943721        -0.0000149501
           6
AU Step:         64 Time:      529.1621467865
C         -0.0012935293         0.0001693725         0.0000963517
N          0.0010781146        -0.0001407830        -0.0000815801
H         -0.0009408207         0.0000227771        -0.0000753980
H         -0.0008902919         0.0002101579         0.0002130065
H          0.0010012435        -0.0002071549        -0.0001721892
H          0.0010452486        -0.0000661948         0.0000329312
           6
AU Step:         65 Time:      537.4303053300
C         -0.0012715172         0.0001665781         0.0000947500
N          0.0010612471        -0.0001385620        -0.0000804120
H         -0.0009564216         0.0000715112         0.0000004204
H         -0.0009285143         0.0001677933         0.0001413446
H          0.0010071270        -0.0002387343        -0.0002203821