 Entering Gaussian System, Link 0=g09
 Input=s1_16_9.com
 Output=s1_16_9.log
 Initial command:
 /opt/Gaussian/g09/l1.exe /tmp/lan/Gau-751.inp -scrdir=/tmp/lan/
 Entering Link 1 = /opt/Gaussian/g09/l1.exe PID=       752.
  
 Copyright (c) 1988,1990,1992,1993,1995,1998,2003,2009,2010,
            Gaussian, Inc.  All Rights Reserved.
  
 This is part of the Gaussian(R) 09 program.  It is based on
 the Gaussian(R) 03 system (copyright 2003, Gaussian, Inc.),
 the Gaussian(R) 98 system (copyright 1998, Gaussian, Inc.),
 the Gaussian(R) 94 system (copyright 1995, Gaussian, Inc.),
 the Gaussian 92(TM) system (copyright 1992, Gaussian, Inc.),
 the Gaussian 90(TM) system (copyright 1990, Gaussian, Inc.),
 the Gaussian 88(TM) system (copyright 1988, Gaussian, Inc.),
 the Gaussian 86(TM) system (copyright 1986, Carnegie Mellon
 University), and the Gaussian 82(TM) system (copyright 1983,
 Carnegie Mellon University). Gaussian is a federally registered
 trademark of Gaussian, Inc.
  
 This software contains proprietary and confidential information,
 including trade secrets, belonging to Gaussian, Inc.
  
 This software is provided under written license and may be
 used, copied, transmitted, or stored only in accord with that
 written license.
  
 The following legend is applicable only to US Government
 contracts under FAR:
  
                    RESTRICTED RIGHTS LEGEND
  
 Use, reproduction and disclosure by the US Government is
 subject to restrictions as set forth in subparagraphs (a)
 and (c) of the Commercial Computer Software - Restricted
 Rights clause in FAR 52.227-19.
  
 Gaussian, Inc.
 340 Quinnipiac St., Bldg. 40, Wallingford CT 06492
  
  
 ---------------------------------------------------------------
 Warning -- This program may not be used in any manner that
 competes with the business of Gaussian, Inc. or will provide
 assistance to any competitor of Gaussian, Inc.  The licensee
 of this program is prohibited from giving any competitor of
 Gaussian, Inc. access to this program.  By using this program,
 the user acknowledges that Gaussian, Inc. is engaged in the
 business of creating and licensing software in the field of
 computational chemistry and represents and warrants to the
 licensee that it is not a competitor of Gaussian, Inc. and that
 it will not use this program in any manner prohibited above.
 ---------------------------------------------------------------
  

 Cite this work as:
 Gaussian 09, Revision B.01,
 M. J. Frisch, G. W. Trucks, H. B. Schlegel, G. E. Scuseria, 
 M. A. Robb, J. R. Cheeseman, G. Scalmani, V. Barone, B. Mennucci, 
 G. A. Petersson, H. Nakatsuji, M. Caricato, X. Li, H. P. Hratchian, 
 A. F. Izmaylov, J. Bloino, G. Zheng, J. L. Sonnenberg, M. Hada, 
 M. Ehara, K. Toyota, R. Fukuda, J. Hasegawa, M. Ishida, T. Nakajima, 
 Y. Honda, O. Kitao, H. Nakai, T. Vreven, J. A. Montgomery, Jr., 
 J. E. Peralta, F. Ogliaro, M. Bearpark, J. J. Heyd, E. Brothers, 
 K. N. Kudin, V. N. Staroverov, T. Keith, R. Kobayashi, J. Normand, 
 K. Raghavachari, A. Rendell, J. C. Burant, S. S. Iyengar, J. Tomasi, 
 M. Cossi, N. Rega, J. M. Millam, M. Klene, J. E. Knox, J. B. Cross, 
 V. Bakken, C. Adamo, J. Jaramillo, R. Gomperts, R. E. Stratmann, 
 O. Yazyev, A. J. Austin, R. Cammi, C. Pomelli, J. W. Ochterski, 
 R. L. Martin, K. Morokuma, V. G. Zakrzewski, G. A. Voth, 
 P. Salvador, J. J. Dannenberg, S. Dapprich, A. D. Daniels, 
 O. Farkas, J. B. Foresman, J. V. Ortiz, J. Cioslowski, 
 and D. J. Fox, Gaussian, Inc., Wallingford CT, 2010.
 
 ******************************************
 Gaussian 09:  AM64L-G09RevB.01 12-Aug-2010
                16-Aug-2012 
 ******************************************
 %Nproc=4
 Will use up to    4 processors via shared memory.
 %mem=800MB
 %NoSave
 %chk=s0.chk
 -----------
 #P hf/3-21G
 -----------
 1/38=1/1;
 2/12=2,17=6,18=5,40=1/2;
 3/5=5,11=9,16=1,25=1,30=1/1,2,3;
 4//1;
 5/5=2,38=5/2;
 6/7=2,8=2,9=2,10=2,28=1/1;
 99/5=1,9=1/99;
 Leave Link    1 at Thu Aug 16 16:33:45 2012, MaxMem=  104857600 cpu:       0.3
 (Enter /opt/Gaussian/g09/l101.exe)
 ---------------------
 S1_1--b3lyp---cc-pvdz
 ---------------------
 Symbolic Z-matrix:
 Charge =  0 Multiplicity = 1
 C                    -0.22215   1.45259   0.01071 
 C                     0.83479   0.49719  -0.00389 
 C                     0.54128  -0.84209  -0.00656 
 N                    -0.68632  -1.41525   0.00692 
 C                    -1.67204  -0.56828  -0.01413 
 N                    -1.4816    0.78254   0.00158 
 N                     2.21498   0.67611   0.00185 
 C                     2.72559  -0.50887  -0.00139 
 N                     1.73218  -1.48908   0.00445 
 N                    -2.94017  -1.01835   0.00395 
 O                    -0.20646   2.66413  -0.00335 
 H                     3.75972  -0.75318  -0.00946 
 H                     1.84934  -2.47733  -0.01186 
 H                    -2.26574   1.40337   0.00361 
 H                    -3.73128  -0.41596  -0.00041 
 H                    -3.07877  -2.00493  -0.00851 
 
 NAtoms=     16 NQM=     16 NQMF=      0 NMic=      0 NMicF=      0 NTot=     16.
                    Isotopes and Nuclear Properties:
 (Nuclear quadrupole moments (NQMom) in fm**2, nuclear magnetic moments (NMagM)
  in nuclear magnetons)

  Atom         1           2           3           4           5           6           7           8           9          10
 IAtWgt=          12          12          12          14          12          14          14          12          14          14
 AtmWgt=  12.0000000  12.0000000  12.0000000  14.0030740  12.0000000  14.0030740  14.0030740  12.0000000  14.0030740  14.0030740
 NucSpn=           0           0           0           2           0           2           2           0           2           2
 AtZEff=   0.0000000   0.0000000   0.0000000   0.0000000   0.0000000   0.0000000   0.0000000   0.0000000   0.0000000   0.0000000
 NQMom=    0.0000000   0.0000000   0.0000000   2.0440000   0.0000000   2.0440000   2.0440000   0.0000000   2.0440000   2.0440000
 NMagM=    0.0000000   0.0000000   0.0000000   0.4037610   0.0000000   0.4037610   0.4037610   0.0000000   0.4037610   0.4037610

  Atom        11          12          13          14          15          16
 IAtWgt=          16           1           1           1           1           1
 AtmWgt=  15.9949146   1.0078250   1.0078250   1.0078250   1.0078250   1.0078250
 NucSpn=           0           1           1           1           1           1
 AtZEff=   0.0000000   0.0000000   0.0000000   0.0000000   0.0000000   0.0000000
 NQMom=    0.0000000   0.0000000   0.0000000   0.0000000   0.0000000   0.0000000
 NMagM=    0.0000000   2.7928460   2.7928460   2.7928460   2.7928460   2.7928460
 Leave Link  101 at Thu Aug 16 16:33:45 2012, MaxMem=  104857600 cpu:       0.6
 (Enter /opt/Gaussian/g09/l202.exe)
                          Input orientation:                          
 ---------------------------------------------------------------------
 Center     Atomic      Atomic             Coordinates (Angstroms)
 Number     Number       Type             X           Y           Z
 ---------------------------------------------------------------------
      1          6           0       -0.222150    1.452590    0.010710
      2          6           0        0.834790    0.497190   -0.003890
      3          6           0        0.541280   -0.842090   -0.006560
      4          7           0       -0.686320   -1.415250    0.006920
      5          6           0       -1.672040   -0.568280   -0.014130
      6          7           0       -1.481600    0.782540    0.001580
      7          7           0        2.214980    0.676110    0.001850
      8          6           0        2.725590   -0.508870   -0.001390
      9          7           0        1.732180   -1.489080    0.004450
     10          7           0       -2.940170   -1.018350    0.003950
     11          8           0       -0.206460    2.664130   -0.003350
     12          1           0        3.759720   -0.753180   -0.009460
     13          1           0        1.849340   -2.477330   -0.011860
     14          1           0       -2.265740    1.403370    0.003610
     15          1           0       -3.731280   -0.415960   -0.000410
     16          1           0       -3.078770   -2.004930   -0.008510
 ---------------------------------------------------------------------
                    Distance matrix (angstroms):
                    1          2          3          4          5
     1  C    0.000000
     2  C    1.424824   0.000000
     3  C    2.418404   1.371068   0.000000
     4  N    2.905163   2.443628   1.354879   0.000000
     5  C    2.487311   2.723881   2.230205   1.299787   0.000000
     6  N    1.426627   2.333906   2.594520   2.337259   1.364269
     7  N    2.557851   1.391751   2.259707   3.576500   4.081383
     8  C    3.540712   2.141795   2.209586   3.530258   4.398050
     9  N    3.531695   2.179598   1.355345   2.419628   3.526603
    10  N    3.673312   4.067831   3.485925   2.288532   1.345750
    11  O    1.211723   2.404128   3.585067   4.107519   3.549157
    12  H    4.552045   3.180986   3.219669   4.495095   5.434908
    13  H    4.442505   3.142792   2.094053   2.749170   4.005570
    14  H    2.044195   3.230248   3.594656   3.230975   2.059174
    15  H    3.975625   4.656485   4.293762   3.204749   2.064911
    16  H    4.484985   4.645059   3.802231   2.464098   2.010692
                    6          7          8          9         10
     6  N    0.000000
     7  N    3.698112   0.000000
     8  C    4.400931   1.290314   0.000000
     9  N    3.935562   2.218367   1.395604   0.000000
    10  N    2.317463   5.426488   5.688623   4.696003   0.000000
    11  O    2.272969   3.132989   4.320284   4.583398   4.586271
    12  H    5.461684   2.104571   1.062628   2.157003   6.705149
    13  H    4.660697   3.174597   2.154706   0.995304   5.006823
    14  H    1.000155   4.539357   5.345097   4.934535   2.513878
    15  H    2.549013   6.045712   6.457538   5.567855   0.994358
    16  H    3.212638   5.933959   5.994067   4.838544   0.996346
                   11         12         13         14         15
    11  O    0.000000
    12  H    5.235325   0.000000
    13  H    5.537237   2.573373   0.000000
    14  H    2.414580   6.399769   5.656320   0.000000
    15  H    4.680953   7.498592   5.949176   2.336190   0.000000
    16  H    5.481817   6.952109   4.950701   3.503951   1.717749
                   16
    16  H    0.000000
 Stoichiometry    C5H5N5O
 Framework group  C1[X(C5H5N5O)]
 Deg. of freedom    42
 Full point group                 C1      NOp   1
 Largest Abelian subgroup         C1      NOp   1
 Largest concise Abelian subgroup C1      NOp   1
                         Standard orientation:                         
 ---------------------------------------------------------------------
 Center     Atomic      Atomic             Coordinates (Angstroms)
 Number     Number       Type             X           Y           Z
 ---------------------------------------------------------------------
      1          6           0        0.222150    1.452589   -0.010886
      2          6           0       -0.834791    0.497190    0.003714
      3          6           0       -0.541282   -0.842090    0.006384
      4          7           0        0.686318   -1.415251   -0.007096
      5          6           0        1.672038   -0.568282    0.013954
      6          7           0        1.481599    0.782539   -0.001756
      7          7           0       -2.214981    0.676111   -0.002026
      8          6           0       -2.725592   -0.508869    0.001214
      9          7           0       -1.732182   -1.489079   -0.004626
     10          7           0        2.940168   -1.018352   -0.004126
     11          8           0        0.206460    2.664129    0.003174
     12          1           0       -3.759722   -0.753178    0.009284
     13          1           0       -1.849343   -2.477329    0.011684
     14          1           0        2.265740    1.403368   -0.003786
     15          1           0        3.731278   -0.415963    0.000234
     16          1           0        3.078767   -2.004933    0.008334
 ---------------------------------------------------------------------
 Rotational constants (GHZ):      1.9534078      1.1196615      0.7117294
 Leave Link  202 at Thu Aug 16 16:33:46 2012, MaxMem=  104857600 cpu:       0.0
 (Enter /opt/Gaussian/g09/l301.exe)
 Standard basis: 3-21G (6D, 7F)
 Ernie: Thresh=  0.10000D-02 Tol=  0.10000D-05 Strict=F.
 There are   109 symmetry adapted basis functions of A   symmetry.
 Integral buffers will be    131072 words long.
 Raffenetti 1 integral format.
 Two-electron integral symmetry is turned on.
   109 basis functions,   180 primitive gaussians,   109 cartesian basis functions
    39 alpha electrons       39 beta electrons
       nuclear repulsion energy       598.0506953734 Hartrees.
 IExCor=    0 DFT=F Ex=HF Corr=None ExCW=0 ScaHFX=  1.000000
 ScaDFX=  1.000000  1.000000  1.000000  1.000000 ScalE2=  1.000000  1.000000
 IRadAn=      0 IRanWt=     -1 IRanGd=            0 ICorTp=0
 NAtoms=   16 NActive=   16 NUniq=   16 SFac= 1.00D+00 NAtFMM=   50 NAOKFM=F Big=F
 Leave Link  301 at Thu Aug 16 16:33:46 2012, MaxMem=  104857600 cpu:       0.3
 (Enter /opt/Gaussian/g09/l302.exe)
 NPDir=0 NMtPBC=     1 NCelOv=     1 NCel=       1 NClECP=     1 NCelD=      1
         NCelK=      1 NCelE2=     1 NClLst=     1 CellRange=     0.0.
 One-electron integrals computed using PRISM.
 NBasis=   109 RedAO= T  NBF=   109
 NBsUse=   109 1.00D-06 NBFU=   109
 Leave Link  302 at Thu Aug 16 16:33:46 2012, MaxMem=  104857600 cpu:       0.9
 (Enter /opt/Gaussian/g09/l303.exe)
 DipDrv:  MaxL=1.
 Leave Link  303 at Thu Aug 16 16:33:46 2012, MaxMem=  104857600 cpu:       0.3
 (Enter /opt/Gaussian/g09/l401.exe)
 Harris functional with IExCor=  205 diagonalized for initial guess.
 ExpMin= 1.83D-01 ExpMax= 3.22D+02 ExpMxC= 3.22D+02 IAcc=1 IRadAn=         1 AccDes= 0.00D+00
 HarFok:  IExCor=  205 AccDes= 0.00D+00 IRadAn=         1 IDoV= 1
 ScaDFX=  1.000000  1.000000  1.000000  1.000000
 FoFCou: FMM=F IPFlag=           0 FMFlag=      100000 FMFlg1=           0
         NFxFlg=           0 DoJE=T BraDBF=F KetDBF=T FulRan=T
         Omega=  0.000000  0.000000  1.000000  0.000000  0.000000 ICntrl=     500 IOpCl=  0
         NMat0=    1 NMatS0=    1 NMatT0=    0 NMatD0=    1 NMtDS0=    0 NMtDT0=    0
         I1Cent=           4 NGrid=           0.
 Petite list used in FoFCou.
 Harris En= -536.811456781777    
 Initial guess orbital symmetries:
       Occupied  (A) (A) (A) (A) (A) (A) (A) (A) (A) (A) (A) (A)
                 (A) (A) (A) (A) (A) (A) (A) (A) (A) (A) (A) (A)
                 (A) (A) (A) (A) (A) (A) (A) (A) (A) (A) (A) (A)
                 (A) (A) (A)
       Virtual   (A) (A) (A) (A) (A) (A) (A) (A) (A) (A) (A) (A)
                 (A) (A) (A) (A) (A) (A) (A) (A) (A) (A) (A) (A)
                 (A) (A) (A) (A) (A) (A) (A) (A) (A) (A) (A) (A)
                 (A) (A) (A) (A) (A) (A) (A) (A) (A) (A) (A) (A)
                 (A) (A) (A) (A) (A) (A) (A) (A) (A) (A) (A) (A)
                 (A) (A) (A) (A) (A) (A) (A) (A) (A) (A)
 The electronic state of the initial guess is 1-A.
 Leave Link  401 at Thu Aug 16 16:33:46 2012, MaxMem=  104857600 cpu:       1.6
 (Enter /opt/Gaussian/g09/l502.exe)
 Closed shell SCF:
 Requested convergence on RMS density matrix=1.00D-08 within 128 cycles.
 Requested convergence on MAX density matrix=1.00D-06.
 Requested convergence on             energy=1.00D-06.
 No special actions if energy rises.
 Using DIIS extrapolation, IDIIS=  1040.
 Integral symmetry usage will be decided dynamically.
 Keep R1 ints in memory in canonical form, NReq=18828305.
 IEnd=       55281 IEndB=       55281 NGot=   104857600 MDV=    86857912
 LenX=    86857912 LenY=    86845590
 Symmetry not used in FoFDir.
 MinBra= 0 MaxBra= 1 Meth= 1.
 IRaf=       0 NMat=   1 IRICut=       1 DoRegI=T DoRafI=F ISym2E= 0 JSym2E=0.

 Cycle   1  Pass 1  IDiag  1:
 E= -536.101180240315    
 DIIS: error= 5.63D-02 at cycle   1 NSaved=   1.
 NSaved= 1 IEnMin= 1 EnMin= -536.101180240315     IErMin= 1 ErrMin= 5.63D-02
 ErrMax= 5.63D-02 EMaxC= 1.00D-01 BMatC= 4.55D-01 BMatP= 4.55D-01
 IDIUse=3 WtCom= 4.37D-01 WtEn= 5.63D-01
 Coeff-Com:  0.100D+01
 Coeff-En:   0.100D+01
 Coeff:      0.100D+01
 Gap=     0.457 Goal=   None    Shift=    0.000
 GapD=    0.457 DampG=2.000 DampE=0.500 DampFc=1.0000 IDamp=-1.
 RMSDP=7.73D-03 MaxDP=1.10D-01              OVMax= 1.25D-01

 Cycle   2  Pass 1  IDiag  1:
 E= -536.314703085387     Delta-E=       -0.213522845071 Rises=F Damp=F
 DIIS: error= 2.44D-02 at cycle   2 NSaved=   2.
 NSaved= 2 IEnMin= 2 EnMin= -536.314703085387     IErMin= 2 ErrMin= 2.44D-02
 ErrMax= 2.44D-02 EMaxC= 1.00D-01 BMatC= 6.92D-02 BMatP= 4.55D-01
 IDIUse=3 WtCom= 7.56D-01 WtEn= 2.44D-01
 Coeff-Com:  0.213D+00 0.787D+00
 Coeff-En:   0.000D+00 0.100D+01
 Coeff:      0.161D+00 0.839D+00
 Gap=     0.468 Goal=   None    Shift=    0.000
 RMSDP=3.67D-03 MaxDP=6.59D-02 DE=-2.14D-01 OVMax= 5.92D-02

 Cycle   3  Pass 1  IDiag  1:
 E= -536.354888435006     Delta-E=       -0.040185349619 Rises=F Damp=F
 DIIS: error= 1.07D-02 at cycle   3 NSaved=   3.
 NSaved= 3 IEnMin= 3 EnMin= -536.354888435006     IErMin= 3 ErrMin= 1.07D-02
 ErrMax= 1.07D-02 EMaxC= 1.00D-01 BMatC= 1.23D-02 BMatP= 6.92D-02
 IDIUse=3 WtCom= 8.93D-01 WtEn= 1.07D-01
 Coeff-Com: -0.131D-01 0.276D+00 0.737D+00
 Coeff-En:   0.000D+00 0.000D+00 0.100D+01
 Coeff:     -0.117D-01 0.247D+00 0.765D+00
 Gap=     0.453 Goal=   None    Shift=    0.000
 RMSDP=1.28D-03 MaxDP=2.23D-02 DE=-4.02D-02 OVMax= 2.52D-02

 Cycle   4  Pass 1  IDiag  1:
 E= -536.364152459149     Delta-E=       -0.009264024143 Rises=F Damp=F
 DIIS: error= 3.05D-03 at cycle   4 NSaved=   4.
 NSaved= 4 IEnMin= 4 EnMin= -536.364152459149     IErMin= 4 ErrMin= 3.05D-03
 ErrMax= 3.05D-03 EMaxC= 1.00D-01 BMatC= 7.05D-04 BMatP= 1.23D-02
 IDIUse=3 WtCom= 9.69D-01 WtEn= 3.05D-02
 Coeff-Com: -0.119D-01 0.306D-01 0.239D+00 0.742D+00
 Coeff-En:   0.000D+00 0.000D+00 0.000D+00 0.100D+01
 Coeff:     -0.115D-01 0.297D-01 0.232D+00 0.750D+00
 Gap=     0.448 Goal=   None    Shift=    0.000
 RMSDP=3.72D-04 MaxDP=6.91D-03 DE=-9.26D-03 OVMax= 5.38D-03

 Cycle   5  Pass 1  IDiag  1:
 E= -536.364806644948     Delta-E=       -0.000654185799 Rises=F Damp=F
 DIIS: error= 7.61D-04 at cycle   5 NSaved=   5.
 NSaved= 5 IEnMin= 5 EnMin= -536.364806644948     IErMin= 5 ErrMin= 7.61D-04
 ErrMax= 7.61D-04 EMaxC= 1.00D-01 BMatC= 3.02D-05 BMatP= 7.05D-04
 IDIUse=3 WtCom= 9.92D-01 WtEn= 7.61D-03
 Coeff-Com:  0.229D-02-0.218D-01-0.785D-01-0.982D-01 0.120D+01
 Coeff-En:   0.000D+00 0.000D+00 0.000D+00 0.000D+00 0.100D+01
 Coeff:      0.227D-02-0.216D-01-0.779D-01-0.974D-01 0.119D+01
 Gap=     0.449 Goal=   None    Shift=    0.000
 RMSDP=1.46D-04 MaxDP=2.02D-03 DE=-6.54D-04 OVMax= 4.36D-03

 Cycle   6  Pass 1  IDiag  1:
 E= -536.364914449134     Delta-E=       -0.000107804186 Rises=F Damp=F
 DIIS: error= 3.46D-04 at cycle   6 NSaved=   6.
 NSaved= 6 IEnMin= 6 EnMin= -536.364914449134     IErMin= 6 ErrMin= 3.46D-04
 ErrMax= 3.46D-04 EMaxC= 1.00D-01 BMatC= 6.86D-06 BMatP= 3.02D-05
 IDIUse=3 WtCom= 9.97D-01 WtEn= 3.46D-03
 Coeff-Com:  0.188D-02-0.717D-02-0.435D-01-0.140D+00 0.190D+00 0.999D+00
 Coeff-En:   0.000D+00 0.000D+00 0.000D+00 0.000D+00 0.000D+00 0.100D+01
 Coeff:      0.187D-02-0.715D-02-0.433D-01-0.140D+00 0.189D+00 0.999D+00
 Gap=     0.449 Goal=   None    Shift=    0.000
 RMSDP=7.29D-05 MaxDP=1.27D-03 DE=-1.08D-04 OVMax= 1.76D-03

 Cycle   7  Pass 1  IDiag  1:
 E= -536.364932822331     Delta-E=       -0.000018373196 Rises=F Damp=F
 DIIS: error= 9.84D-05 at cycle   7 NSaved=   7.
 NSaved= 7 IEnMin= 7 EnMin= -536.364932822331     IErMin= 7 ErrMin= 9.84D-05
 ErrMax= 9.84D-05 EMaxC= 1.00D-01 BMatC= 8.80D-07 BMatP= 6.86D-06
 IDIUse=1 WtCom= 1.00D+00 WtEn= 0.00D+00
 Coeff-Com: -0.146D-03 0.256D-02 0.903D-02-0.625D-02-0.138D+00 0.528D-01
 Coeff-Com:  0.108D+01
 Coeff:     -0.146D-03 0.256D-02 0.903D-02-0.625D-02-0.138D+00 0.528D-01
 Coeff:      0.108D+01
 Gap=     0.449 Goal=   None    Shift=    0.000
 RMSDP=2.62D-05 MaxDP=4.25D-04 DE=-1.84D-05 OVMax= 7.13D-04

 Cycle   8  Pass 1  IDiag  1:
 E= -536.364935036283     Delta-E=       -0.000002213952 Rises=F Damp=F
 DIIS: error= 4.34D-05 at cycle   8 NSaved=   8.
 NSaved= 8 IEnMin= 8 EnMin= -536.364935036283     IErMin= 8 ErrMin= 4.34D-05
 ErrMax= 4.34D-05 EMaxC= 1.00D-01 BMatC= 1.44D-07 BMatP= 8.80D-07
 IDIUse=1 WtCom= 1.00D+00 WtEn= 0.00D+00
 Coeff-Com: -0.340D-03 0.187D-02 0.105D-01 0.212D-01-0.575D-01-0.153D+00
 Coeff-Com:  0.279D+00 0.899D+00
 Coeff:     -0.340D-03 0.187D-02 0.105D-01 0.212D-01-0.575D-01-0.153D+00
 Coeff:      0.279D+00 0.899D+00
 Gap=     0.449 Goal=   None    Shift=    0.000
 RMSDP=8.30D-06 MaxDP=1.64D-04 DE=-2.21D-06 OVMax= 2.15D-04

 Cycle   9  Pass 1  IDiag  1:
 E= -536.364935303220     Delta-E=       -0.000000266937 Rises=F Damp=F
 DIIS: error= 1.12D-05 at cycle   9 NSaved=   9.
 NSaved= 9 IEnMin= 9 EnMin= -536.364935303220     IErMin= 9 ErrMin= 1.12D-05
 ErrMax= 1.12D-05 EMaxC= 1.00D-01 BMatC= 1.31D-08 BMatP= 1.44D-07
 IDIUse=1 WtCom= 1.00D+00 WtEn= 0.00D+00
 Coeff-Com:  0.596D-04-0.503D-03-0.221D-02-0.378D-02 0.220D-01 0.213D-01
 Coeff-Com: -0.145D+00-0.158D+00 0.127D+01
 Coeff:      0.596D-04-0.503D-03-0.221D-02-0.378D-02 0.220D-01 0.213D-01
 Coeff:     -0.145D+00-0.158D+00 0.127D+01
 Gap=     0.449 Goal=   None    Shift=    0.000
 RMSDP=3.02D-06 MaxDP=3.34D-05 DE=-2.67D-07 OVMax= 9.49D-05

 Cycle  10  Pass 1  IDiag  1:
 E= -536.364935342999     Delta-E=       -0.000000039779 Rises=F Damp=F
 DIIS: error= 6.38D-06 at cycle  10 NSaved=  10.
 NSaved=10 IEnMin=10 EnMin= -536.364935342999     IErMin=10 ErrMin= 6.38D-06
 ErrMax= 6.38D-06 EMaxC= 1.00D-01 BMatC= 2.62D-09 BMatP= 1.31D-08
 IDIUse=1 WtCom= 1.00D+00 WtEn= 0.00D+00
 Coeff-Com:  0.754D-04-0.476D-03-0.239D-02-0.510D-02 0.162D-01 0.327D-01
 Coeff-Com: -0.879D-01-0.201D+00 0.354D+00 0.894D+00
 Coeff:      0.754D-04-0.476D-03-0.239D-02-0.510D-02 0.162D-01 0.327D-01
 Coeff:     -0.879D-01-0.201D+00 0.354D+00 0.894D+00
 Gap=     0.449 Goal=   None    Shift=    0.000
 RMSDP=1.06D-06 MaxDP=1.50D-05 DE=-3.98D-08 OVMax= 3.95D-05

 Cycle  11  Pass 1  IDiag  1:
 E= -536.364935348664     Delta-E=       -0.000000005665 Rises=F Damp=F
 DIIS: error= 1.21D-06 at cycle  11 NSaved=  11.
 NSaved=11 IEnMin=11 EnMin= -536.364935348664     IErMin=11 ErrMin= 1.21D-06
 ErrMax= 1.21D-06 EMaxC= 1.00D-01 BMatC= 2.01D-10 BMatP= 2.62D-09
 IDIUse=1 WtCom= 1.00D+00 WtEn= 0.00D+00
 Coeff-Com: -0.251D-05 0.259D-04 0.138D-03 0.462D-04-0.152D-02-0.748D-03
 Coeff-Com:  0.107D-01 0.700D-02-0.117D+00 0.401D-01 0.106D+01
 Coeff:     -0.251D-05 0.259D-04 0.138D-03 0.462D-04-0.152D-02-0.748D-03
 Coeff:      0.107D-01 0.700D-02-0.117D+00 0.401D-01 0.106D+01
 Gap=     0.449 Goal=   None    Shift=    0.000
 RMSDP=3.73D-07 MaxDP=4.97D-06 DE=-5.67D-09 OVMax= 1.20D-05

 Cycle  12  Pass 1  IDiag  1:
 E= -536.364935349143     Delta-E=       -0.000000000479 Rises=F Damp=F
 DIIS: error= 5.17D-07 at cycle  12 NSaved=  12.
 NSaved=12 IEnMin=12 EnMin= -536.364935349143     IErMin=12 ErrMin= 5.17D-07
 ErrMax= 5.17D-07 EMaxC= 1.00D-01 BMatC= 1.77D-11 BMatP= 2.01D-10
 IDIUse=1 WtCom= 1.00D+00 WtEn= 0.00D+00
 Coeff-Com: -0.824D-05 0.543D-04 0.272D-03 0.546D-03-0.190D-02-0.349D-02
 Coeff-Com:  0.108D-01 0.231D-01-0.504D-01-0.922D-01 0.128D+00 0.985D+00
 Coeff:     -0.824D-05 0.543D-04 0.272D-03 0.546D-03-0.190D-02-0.349D-02
 Coeff:      0.108D-01 0.231D-01-0.504D-01-0.922D-01 0.128D+00 0.985D+00
 Gap=     0.449 Goal=   None    Shift=    0.000
 RMSDP=1.03D-07 MaxDP=1.34D-06 DE=-4.79D-10 OVMax= 3.82D-06

 Cycle  13  Pass 1  IDiag  1:
 E= -536.364935349194     Delta-E=       -0.000000000052 Rises=F Damp=F
 DIIS: error= 1.47D-07 at cycle  13 NSaved=  13.
 NSaved=13 IEnMin=13 EnMin= -536.364935349194     IErMin=13 ErrMin= 1.47D-07
 ErrMax= 1.47D-07 EMaxC= 1.00D-01 BMatC= 2.95D-12 BMatP= 1.77D-11
 IDIUse=1 WtCom= 1.00D+00 WtEn= 0.00D+00
 Coeff-Com:  0.145D-05-0.103D-04-0.595D-04-0.695D-04 0.460D-03 0.611D-03
 Coeff-Com: -0.322D-02-0.366D-02 0.223D-01 0.346D-02-0.167D+00-0.847D-01
 Coeff-Com:  0.123D+01
 Coeff:      0.145D-05-0.103D-04-0.595D-04-0.695D-04 0.460D-03 0.611D-03
 Coeff:     -0.322D-02-0.366D-02 0.223D-01 0.346D-02-0.167D+00-0.847D-01
 Coeff:      0.123D+01
 Gap=     0.449 Goal=   None    Shift=    0.000
 RMSDP=4.79D-08 MaxDP=6.98D-07 DE=-5.18D-11 OVMax= 1.93D-06

 Cycle  14  Pass 1  IDiag  1:
 E= -536.364935349202     Delta-E=       -0.000000000007 Rises=F Damp=F
 DIIS: error= 4.78D-08 at cycle  14 NSaved=  14.
 NSaved=14 IEnMin=14 EnMin= -536.364935349202     IErMin=14 ErrMin= 4.78D-08
 ErrMax= 4.78D-08 EMaxC= 1.00D-01 BMatC= 2.21D-13 BMatP= 2.95D-12
 IDIUse=1 WtCom= 1.00D+00 WtEn= 0.00D+00
 Coeff-Com:  0.687D-06-0.467D-05-0.247D-04-0.465D-04 0.174D-03 0.313D-03
 Coeff-Com: -0.110D-02-0.164D-02 0.530D-02 0.691D-02-0.213D-01-0.605D-01
 Coeff-Com:  0.437D-01 0.103D+01
 Coeff:      0.687D-06-0.467D-05-0.247D-04-0.465D-04 0.174D-03 0.313D-03
 Coeff:     -0.110D-02-0.164D-02 0.530D-02 0.691D-02-0.213D-01-0.605D-01
 Coeff:      0.437D-01 0.103D+01
 Gap=     0.449 Goal=   None    Shift=    0.000
 RMSDP=1.02D-08 MaxDP=1.44D-07 DE=-7.28D-12 OVMax= 4.16D-07

 Cycle  15  Pass 1  IDiag  1:
 E= -536.364935349202     Delta-E=        0.000000000000 Rises=F Damp=F
 DIIS: error= 1.80D-08 at cycle  15 NSaved=  15.
 NSaved=15 IEnMin=14 EnMin= -536.364935349202     IErMin=15 ErrMin= 1.80D-08
 ErrMax= 1.80D-08 EMaxC= 1.00D-01 BMatC= 4.90D-14 BMatP= 2.21D-13
 IDIUse=1 WtCom= 1.00D+00 WtEn= 0.00D+00
 Coeff-Com: -0.192D-06 0.137D-05 0.784D-05 0.807D-05-0.604D-04-0.743D-04
 Coeff-Com:  0.407D-03 0.602D-03-0.342D-02-0.617D-03 0.261D-01 0.172D-01
 Coeff-Com: -0.231D+00 0.771D-01 0.111D+01
 Coeff:     -0.192D-06 0.137D-05 0.784D-05 0.807D-05-0.604D-04-0.743D-04
 Coeff:      0.407D-03 0.602D-03-0.342D-02-0.617D-03 0.261D-01 0.172D-01
 Coeff:     -0.231D+00 0.771D-01 0.111D+01
 Gap=     0.449 Goal=   None    Shift=    0.000
 RMSDP=6.09D-09 MaxDP=8.98D-08 DE= 2.27D-13 OVMax= 2.33D-07

 SCF Done:  E(RHF) =  -536.364935349     A.U. after   15 cycles
             Convg  =    0.6092D-08             -V/T =  2.0020
 KE= 5.352892360858D+02 PE=-2.452017494815D+03 EE= 7.823126280066D+02
 Leave Link  502 at Thu Aug 16 16:33:49 2012, MaxMem=  104857600 cpu:       9.8
 (Enter /opt/Gaussian/g09/l601.exe)
 Copying SCF densities to generalized density rwf, IOpCl= 0 IROHF=0.

 **********************************************************************

            Population analysis using the SCF density.

 **********************************************************************

 Orbital symmetries:
       Occupied  (A) (A) (A) (A) (A) (A) (A) (A) (A) (A) (A) (A)
                 (A) (A) (A) (A) (A) (A) (A) (A) (A) (A) (A) (A)
                 (A) (A) (A) (A) (A) (A) (A) (A) (A) (A) (A) (A)
                 (A) (A) (A)
       Virtual   (A) (A) (A) (A) (A) (A) (A) (A) (A) (A) (A) (A)
                 (A) (A) (A) (A) (A) (A) (A) (A) (A) (A) (A) (A)
                 (A) (A) (A) (A) (A) (A) (A) (A) (A) (A) (A) (A)
                 (A) (A) (A) (A) (A) (A) (A) (A) (A) (A) (A) (A)
                 (A) (A) (A) (A) (A) (A) (A) (A) (A) (A) (A) (A)
                 (A) (A) (A) (A) (A) (A) (A) (A) (A) (A)
 The electronic state is 1-A.
 Alpha  occ. eigenvalues --  -20.41984 -15.55154 -15.55148 -15.52966 -15.48627
 Alpha  occ. eigenvalues --  -15.48297 -11.34888 -11.31307 -11.27221 -11.24877
 Alpha  occ. eigenvalues --  -11.19059  -1.40798  -1.37463  -1.34892  -1.22970
 Alpha  occ. eigenvalues --   -1.22297  -1.18099  -1.04117  -0.90898  -0.89125
 Alpha  occ. eigenvalues --   -0.83697  -0.81351  -0.74968  -0.73964  -0.70783
 Alpha  occ. eigenvalues --   -0.67801  -0.66493  -0.63284  -0.60777  -0.60167
 Alpha  occ. eigenvalues --   -0.59743  -0.55050  -0.47038  -0.44530  -0.42552
 Alpha  occ. eigenvalues --   -0.42394  -0.40786  -0.40021  -0.29564
 Alpha virt. eigenvalues --    0.15360   0.17125   0.22880   0.23373   0.26895
 Alpha virt. eigenvalues --    0.28189   0.30672   0.32281   0.38560   0.38806
 Alpha virt. eigenvalues --    0.42973   0.45327   0.48801   0.53315   0.55034
 Alpha virt. eigenvalues --    0.57583   0.62373   0.64273   0.69513   0.77242
 Alpha virt. eigenvalues --    0.78796   0.90163   0.96126   0.97024   0.97255
 Alpha virt. eigenvalues --    1.00468   1.01243   1.05343   1.06288   1.06615
 Alpha virt. eigenvalues --    1.07985   1.11295   1.14927   1.15863   1.17639
 Alpha virt. eigenvalues --    1.19304   1.33255   1.37892   1.38596   1.41128
 Alpha virt. eigenvalues --    1.43238   1.43826   1.44259   1.45051   1.47970
 Alpha virt. eigenvalues --    1.53012   1.54045   1.55836   1.61642   1.65666
 Alpha virt. eigenvalues --    1.67256   1.67942   1.77482   1.84201   1.89606
 Alpha virt. eigenvalues --    1.94148   1.95713   1.96742   1.99478   2.05273
 Alpha virt. eigenvalues --    2.08320   2.15078   2.36086   2.48056   2.87454
 Alpha virt. eigenvalues --    3.08201   3.18577   3.23060   3.55246   3.96798
          Condensed to atoms (all electrons):
              1          2          3          4          5          6
     1  C    4.438093   0.039252  -0.068009  -0.010873  -0.043376   0.116288
     2  C    0.039252   6.058755   0.172212  -0.060816   0.006725  -0.164273
     3  C   -0.068009   0.172212   4.926380   0.338733  -0.144953   0.001475
     4  N   -0.010873  -0.060816   0.338733   7.210037   0.536081  -0.081794
     5  C   -0.043376   0.006725  -0.144953   0.536081   4.045142   0.203438
     6  N    0.116288  -0.164273   0.001475  -0.081794   0.203438   7.807064
     7  N   -0.032529   0.309289  -0.071497   0.002812   0.000416   0.000865
     8  C    0.001237  -0.200992  -0.130427   0.001740  -0.000010  -0.000172
     9  N    0.003650  -0.072257   0.183343  -0.032942   0.000380   0.000120
    10  N    0.000415  -0.000076   0.000218  -0.063016   0.271228  -0.073921
    11  O    0.643687  -0.107781   0.002935  -0.000002   0.000673  -0.081963
    12  H   -0.000016   0.003883   0.001515  -0.000010   0.000003   0.000000
    13  H   -0.000027   0.005045  -0.019453   0.001321   0.000002   0.000008
    14  H   -0.019696   0.006897  -0.000583   0.001840  -0.023027   0.320520
    15  H   -0.000053   0.000007  -0.000136   0.001955  -0.029075  -0.001014
    16  H   -0.000023   0.000040   0.000092   0.002583  -0.025491   0.002964
              7          8          9         10         11         12
     1  C   -0.032529   0.001237   0.003650   0.000415   0.643687  -0.000016
     2  C    0.309289  -0.200992  -0.072257  -0.000076  -0.107781   0.003883
     3  C   -0.071497  -0.130427   0.183343   0.000218   0.002935   0.001515
     4  N    0.002812   0.001740  -0.032942  -0.063016  -0.000002  -0.000010
     5  C    0.000416  -0.000010   0.000380   0.271228   0.000673   0.000003
     6  N    0.000865  -0.000172   0.000120  -0.073921  -0.081963   0.000000
     7  N    7.032688   0.523539  -0.113785   0.000000  -0.001208  -0.026660
     8  C    0.523539   4.826488   0.231833   0.000000  -0.000046   0.388444
     9  N   -0.113785   0.231833   7.485086  -0.000008  -0.000003  -0.038843
    10  N    0.000000   0.000000  -0.000008   7.164114  -0.000003   0.000000
    11  O   -0.001208  -0.000046  -0.000003  -0.000003   8.167215   0.000000
    12  H   -0.026660   0.388444  -0.038843   0.000000   0.000000   0.398261
    13  H    0.001532  -0.011076   0.333566  -0.000002   0.000000   0.000173
    14  H   -0.000008   0.000003   0.000002  -0.001469   0.003241   0.000000
    15  H    0.000000   0.000000   0.000000   0.340697  -0.000001   0.000000
    16  H    0.000000   0.000000  -0.000004   0.330405   0.000000   0.000000
             13         14         15         16
     1  C   -0.000027  -0.019696  -0.000053  -0.000023
     2  C    0.005045   0.006897   0.000007   0.000040
     3  C   -0.019453  -0.000583  -0.000136   0.000092
     4  N    0.001321   0.001840   0.001955   0.002583
     5  C    0.000002  -0.023027  -0.029075  -0.025491
     6  N    0.000008   0.320520  -0.001014   0.002964
     7  N    0.001532  -0.000008   0.000000   0.000000
     8  C   -0.011076   0.000003   0.000000   0.000000
     9  N    0.333566   0.000002   0.000000  -0.000004
    10  N   -0.000002  -0.001469   0.340697   0.330405
    11  O    0.000000   0.003241  -0.000001   0.000000
    12  H    0.000173   0.000000   0.000000   0.000000
    13  H    0.303875   0.000000   0.000000   0.000001
    14  H    0.000000   0.327216   0.002372   0.000016
    15  H    0.000000   0.002372   0.341601  -0.015602
    16  H    0.000001   0.000016  -0.015602   0.322565
 Mulliken atomic charges:
              1
     1  C    0.931981
     2  C    0.004090
     3  C    0.808155
     4  N   -0.847648
     5  C    1.201843
     6  N   -1.049605
     7  N   -0.625454
     8  C    0.369438
     9  N   -0.980139
    10  N   -0.968582
    11  O   -0.626745
    12  H    0.273251
    13  H    0.385035
    14  H    0.382677
    15  H    0.359249
    16  H    0.382454
 Sum of Mulliken atomic charges =   0.00000
 Mulliken charges with hydrogens summed into heavy atoms:
              1
     1  C    0.931981
     2  C    0.004090
     3  C    0.808155
     4  N   -0.847648
     5  C    1.201843
     6  N   -0.666928
     7  N   -0.625454
     8  C    0.642689
     9  N   -0.595103
    10  N   -0.226879
    11  O   -0.626745
 Sum of Mulliken charges with hydrogens summed into heavy atoms =   0.00000
 Electronic spatial extent (au):  <R**2>=           1503.2079
 Charge=              0.0000 electrons
 Dipole moment (field-independent basis, Debye):
    X=              4.1835    Y=             -5.8332    Z=              0.1281  Tot=              7.1795
 Quadrupole moment (field-independent basis, Debye-Ang):
   XX=            -39.8562   YY=            -71.0081   ZZ=            -64.8266
   XY=             10.0299   XZ=              0.1029   YZ=             -0.3088
 Traceless Quadrupole moment (field-independent basis, Debye-Ang):
   XX=             18.7074   YY=            -12.4445   ZZ=             -6.2630
   XY=             10.0299   XZ=              0.1029   YZ=             -0.3088
 Octapole moment (field-independent basis, Debye-Ang**2):
  XXX=             58.7263  YYY=            -55.2757  ZZZ=              0.0516  XYY=              4.5514
  XXY=            -29.7636  XXZ=              0.8615  XZZ=              3.1038  YZZ=              3.7609
  YYZ=              0.2974  XYZ=             -0.1022
 Hexadecapole moment (field-independent basis, Debye-Ang**3):
 XXXX=           -835.5416 YYYY=           -712.0057 ZZZZ=            -56.6342 XXXY=             49.5226
 XXXZ=              0.6159 YYYX=             24.6858 YYYZ=             -0.9550 ZZZX=              0.1255
 ZZZY=             -0.0329 XXYY=           -243.7628 XXZZ=           -224.9296 YYZZ=           -119.1826
 XXYZ=             -1.1041 YYXZ=             -0.0727 ZZXY=              2.2539
 N-N= 5.980506953734D+02 E-N=-2.452017494748D+03  KE= 5.352892360858D+02
 No NMR shielding tensors so no spin-rotation constants.
 Leave Link  601 at Thu Aug 16 16:33:49 2012, MaxMem=  104857600 cpu:       0.8
 (Enter /opt/Gaussian/g09/l9999.exe)
 1\1\GINC-NODE33\SP\RHF\3-21G\C5H5N5O1\LAN\16-Aug-2012\0\\#P hf/3-21G\\
 S1_1--b3lyp---cc-pvdz\\0,1\C,0,-0.22215,1.45259,0.01071\C,0,0.83479,0.
 49719,-0.00389\C,0,0.54128,-0.84209,-0.00656\N,0,-0.68632,-1.41525,0.0
 0692\C,0,-1.67204,-0.56828,-0.01413\N,0,-1.4816,0.78254,0.00158\N,0,2.
 21498,0.67611,0.00185\C,0,2.72559,-0.50887,-0.00139\N,0,1.73218,-1.489
 08,0.00445\N,0,-2.94017,-1.01835,0.00395\O,0,-0.20646,2.66413,-0.00335
 \H,0,3.75972,-0.75318,-0.00946\H,0,1.84934,-2.47733,-0.01186\H,0,-2.26
 574,1.40337,0.00361\H,0,-3.73128,-0.41596,-0.00041\H,0,-3.07877,-2.004
 93,-0.00851\\Version=AM64L-G09RevB.01\State=1-A\HF=-536.3649353\RMSD=6
 .092e-09\Dipole=-1.6459047,-2.2949729,-0.050409\Quadrupole=13.908508,-
 9.2521347,-4.6563733,-7.4570275,0.0764892,0.2296133\PG=C01 [X(C5H5N5O1
 )]\\@


 ANYONE WHO IS NOT SHOCKED BY QUANTUM THEORY HAS
 NOT UNDERSTOOD IT. -- NIELS BOHR(1885-1962)
 Job cpu time:  0 days  0 hours  0 minutes 15.2 seconds.
 File lengths (MBytes):  RWF=      9 Int=      0 D2E=      0 Chk=      2 Scr=      1
 Normal termination of Gaussian 09 at Thu Aug 16 16:33:49 2012.

------------------------------------------------------------
Sender: LSF System <lsfadmin@node33>
Subject: Job 180001: <g09 s1_16_9.com> Done

Job <g09 s1_16_9.com> was submitted from host <user> by user <lan>.
Job was executed on host(s) <4*node33>, in queue <simul>, as user <lan>.
</home/simul/lan> was used as the home directory.
</home/simul/lan/sci/gaussian/guanine/test_normal/geom/scan/angle_16_9> was used as the working directory.
Started at Thu Aug 16 16:33:45 2012
Results reported at Thu Aug 16 16:33:54 2012

Your job looked like:

------------------------------------------------------------
# LSBATCH: User input
g09 s1_16_9.com
------------------------------------------------------------

Successfully completed.

Resource usage summary:

    CPU time   :     15.22 sec.

The output (if any) is above this job summary.



PS:

Read file <s1_16_9.err> for stderr output of this job.

